 TITLE = "2D surface" 
 VARIABLES = "X", "Y" 
ZONE T="TRIANGLES", N=            860, E=            430, DATAPACKING=POINT, 
ZONETYPE=FELINESEG SOLUTIONTIME=  0.9375000000000001E-002 STRANDID=         4
  0.25709093141243433       0.46802843141243433     
  0.25781250000000000       0.46290297608334607     
  0.25709093141243433       0.46802843141243433     
  0.25698934800313084       0.46875000000000000     
  0.25697997222999297       0.46875000000000000     
  0.25627515557997671       0.47502515557997677     
  0.25627515557997671       0.47502515557997677     
  0.25610248321668116       0.47656250000000000     
  0.25610264547262185       0.47656250000000000     
  0.25565069819968522       0.48221319819968522     
  0.25565069819968522       0.48221319819968522     
  0.25547779559654560       0.48437500000000000     
  0.25547790237366214       0.48437500000000000     
  0.25522755224310756       0.48960255224310756     
  0.25522755224310756       0.48960255224310756     
  0.25510375778284788       0.49218750000000000     
  0.25510381064301407       0.49218750000000000     
  0.25502369650641182       0.49721119650641182     
  0.25502369650641182       0.49721119650641182     
  0.25497922276406748       0.50000000000000000     
  0.25497922276396712       0.50000000000000000     
  0.25505991447768833       0.50505991447768839     
  0.25505991447768833       0.50505991447768839     
  0.25510381064311538       0.50781250000000000     
  0.25510375778183991       0.50781250000000000     
  0.25536047358428055       0.51317297358428049     
  0.25536047358428055       0.51317297358428049     
  0.25547790237467005       0.51562500000000000     
  0.25547779559563888       0.51562500000000000     
  0.25595400128886125       0.52157900128886125     
  0.25595400128886125       0.52157900128886125     
  0.25610264547352851       0.52343750000000000     
  0.25610248321597051       0.52343750000000000     
  0.25687463224298479       0.53031213224298479     
  0.25687463224298479       0.53031213224298479     
  0.25697997223070362       0.53125000000000000     
  0.25698934800164658       0.53125000000000000     
  0.25781250000000000       0.53709702390611114     
  0.26537985818762599       0.42944235818762599     
  0.26562500000000000       0.42863076379273957     
  0.26537985818762599       0.42944235818762599     
  0.26530581318614171       0.42968750000000000     
  0.26528291341859711       0.42968750000000000     
  0.26364140801586605       0.43551640801586605     
  0.26364140801586605       0.43551640801586605     
  0.26308279961959236       0.43750000000000000     
  0.26308330051315321       0.43750000000000000     
  0.26204155909201360       0.44172905909201360     
  0.26204155909201360       0.44172905909201360     
  0.26115885238519432       0.44531250000000000     
  0.26115927264115740       0.44531250000000000     
  0.26057411156112664       0.44807411156112664     
  0.26057411156112664       0.44807411156112664     
  0.25950387294552635       0.45312500000000000     
  0.25950422160770398       0.45312500000000000     
  0.25924840148540479       0.45456090148540484     
  0.25924840148540479       0.45456090148540484     
  0.25811234707746872       0.46093749999999994     
  0.25813260191684645       0.46093750000000000     
  0.25808912266760625       0.46121412266760625     
  0.25781250000000000       0.46297404496550376     
  0.25808912266760625       0.46121412266760625     
  0.25781250000000000       0.53702595506580653     
  0.25813260192176773       0.53906249999999989     
  0.25811234707599806       0.53906250000000000     
  0.25817734845492685       0.53942734845492679     
  0.25817734845492685       0.53942734845492679     
  0.25950422160917463       0.54687500000000000     
  0.25950387294496580       0.54687500000000000     
  0.25995861594447717       0.54902111594447711     
  0.25995861594447717       0.54902111594447711     
  0.26115927264171801       0.55468750000000000     
  0.26115885238421771       0.55468750000000000     
  0.26225257263837343       0.55912757263837354     
  0.26225257263837343       0.55912757263837354     
  0.26308330051412981       0.56250000000000000     
  0.26308279962076409       0.56250000000000000     
  0.26514881191715312       0.56983631191715300     
  0.26514881191715312       0.56983631191715300     
  0.26528291341742538       0.57031250000000000     
  0.26530581316932572       0.57031250000000000     
  0.26562500000000000       0.57136923615158763     
  0.27136020119059362       0.41198520119059356     
  0.27343750000000000       0.40669941456905473     
  0.27136020119059362       0.41198520119059356     
  0.27054382878426581       0.41406250000000000     
  0.27054156441202676       0.41406250000000000     
  0.26925247380328299       0.41768997380328299     
  0.26925247380328299       0.41768997380328299     
  0.26776524653160660       0.42187500000000000     
  0.26777211623494268       0.42187500000000000     
  0.26725104476121581       0.42350104476121581     
  0.26562500000000000       0.42857524609211256     
  0.26725104476121581       0.42350104476121581     
  0.26562500000000000       0.57142475391445691     
  0.26777211623704789       0.57812500000000000     
  0.26776524653179729       0.57812500000000000     
  0.26894510948599198       0.58144510948599204     
  0.26894510948599198       0.58144510948599204     
  0.27054156441183608       0.58593750000000000     
  0.27054382878452710       0.58593750000000000     
  0.27343750000000000       0.59330058543161013     
  0.28092956756989668       0.39030456756989668     
  0.28125000000000000       0.38966580157284936     
  0.28092956756989668       0.39030456756989668     
  0.28076882491493926       0.39062500000000000     
  0.28074090833845555       0.39062500000000000     
  0.27838225793953542       0.39556975793953542     
  0.27838225793953542       0.39556975793953542     
  0.27701434447690987       0.39843750000000000     
  0.27701544347511803       0.39843750000000000     
  0.27593141910865571       0.40093141910865571     
  0.27593141910865571       0.40093141910865571     
  0.27361960744595648       0.40625000000000000     
  0.27366978033644851       0.40625000000000000     
  0.27359123620801645       0.40640373620801651     
  0.27343749999999994       0.40670464758264246     
  0.27359123620801645       0.40640373620801651     
  0.27343749999999994       0.59329535241422482     
  0.27366978033484812       0.59375000000000000     
  0.27361960744643865       0.59375000000000000     
  0.27375962421736971       0.59407212421736977     
  0.27375962421736971       0.59407212421736977     
  0.27701544347463580       0.60156250000000000     
  0.27701434447706563       0.60156250000000000     
  0.28027659305677893       0.60840159305677899     
  0.28027659305677893       0.60840159305677899     
  0.28074090833829984       0.60937500000000000     
  0.28076882493125049       0.60937500000000000     
  0.28125000000000000       0.61033419845966630     
  0.28635309532795072       0.38010309532795072     
  0.28906250000000000       0.37532915007697876     
  0.28635309532795072       0.38010309532795072     
  0.28481539992278704       0.38281250000000000     
  0.28482107006213225       0.38281250000000000     
  0.28359261823737836       0.38515511823737836     
  0.28125000000000000       0.38962241609596338     
  0.28359261823737836       0.38515511823737836     
  0.28125000000000000       0.61037758390628183     
  0.28482107006330964       0.61718750000000000     
  0.28481539992274640       0.61718750000000000     
  0.28906250000000000       0.62467084992294941     
  0.29520994876454226       0.36552244876454232     
  0.29687500000000000       0.36299834355756277     
  0.29520994876454226       0.36552244876454232     
  0.29411158107010815       0.36718750000000000     
  0.29408780731970924       0.36718750000000000     
  0.29216681876094419       0.37029181876094419     
  0.29216681876094419       0.37029181876094419     
  0.28925334144456577       0.37500000000000000     
  0.28932432284279264       0.37500000000000006     
  0.28920744246659663       0.37514494246659669     
  0.28906250000000000       0.37532468451831519     
  0.28920744246659663       0.37514494246659669     
  0.28906250000000000       0.62467531547952393     
  0.28932432284105014       0.62500000000000000     
  0.28925334144286302       0.62500000000000000     
  0.28956314865329374       0.62550064865329380     
  0.28956314865329374       0.62550064865329380     
  0.29408780732141193       0.63281250000000000     
  0.29411158106930441       0.63281250000000000     
  0.29687500000000000       0.63700165644121887     
  0.30159584378014825       0.35628334378014820     
  0.30468750000000000       0.35204108220709091     
  0.30159584378014825       0.35628334378014820     
  0.29934272053040484       0.35937500000000000     
  0.29936888827787972       0.35937500000000000     
  0.29835277724801412       0.36085277724801412     
  0.29687500000000000       0.36300197702103221     
  0.29835277724801412       0.36085277724801412     
  0.29687500000000000       0.63699802297815422     
  0.29936888827732022       0.64062500000000000     
  0.29934272052960564       0.64062500000000000     
  0.30468750000000000       0.64795891779181258     
  0.31184031640707927       0.34309031640707932     
  0.31250000000000000       0.34229981235473889     
  0.31184031640707927       0.34309031640707932     
  0.31128980380504978       0.34375000000000000     
  0.31124779188231161       0.34375000000000000     
  0.30834399252349776       0.34740649252349781     
  0.30834399252349776       0.34740649252349781     
  0.30504350393561247       0.35156250000000000     
  0.30508607570539725       0.35156250000000000     
  0.30491410088200144       0.35178910088200149     
  0.30468750000000006       0.35208767923614620     
  0.30491410088200144       0.35178910088200149     
  0.30468750000000000       0.64791232101382323     
  0.30508607589510711       0.64843750000000000     
  0.30504350393435481       0.64843750000000000     
  0.30641692413644289       0.65016692413644284     
  0.30641692413644289       0.65016692413644284     
  0.31124779188356932       0.65625000000000000     
  0.31128980381047999       0.65625000000000000     
  0.31250000000000000       0.65770018765176819     
  0.31912393505674030       0.33474893505674036     
  0.32031250000000000       0.33344878042118664     
  0.31912393505674030       0.33474893505674036     
  0.31803738228392792       0.33593750000000000     
  0.31801040028957456       0.33593750000000000     
  0.31544530029894879       0.33888280029894879     
  0.31250000000000000       0.34226465437196363     
  0.31544530029894879       0.33888280029894879     
  0.31250000000000000       0.65773534562886238     
  0.31801040029029393       0.66406250000000000     
  0.31803738228053113       0.66406250000000000     
  0.32031250000000000       0.66655121957509766     
  0.32676061687944158       0.32676061687944158     
  0.32812500000000000       0.32539623375888599     
  0.32676061687944158       0.32676061687944158     
  0.32539623375888016       0.32812500000000000     
  0.32537773314463603       0.32812500000000000     
  0.32290311604677824       0.33071561604677824     
  0.32031250000000000       0.33342766855285472     
  0.32290311604677824       0.33071561604677824     
  0.32031250000000000       0.66657233144816463     
  0.32537773314560975       0.67187500000000000     
  0.32539623375605409       0.67187500000000000     
  0.32812500000000000       0.67460376623828799     
  0.33474893505675146       0.31912393505675141     
  0.33593750000000000       0.31803738228440293     
  0.33474893505675146       0.31912393505675141     
  0.33344878042066700       0.32031250000000000     
  0.33342766855284767       0.32031250000000000     
  0.33071561604677835       0.32290311604677835     
  0.32812500000000000       0.32537773314464269     
  0.33071561604677835       0.32290311604677835     
  0.32812500000000000       0.67462226685273896     
  0.33342766855010658       0.67968750000000000     
  0.33344878042977216       0.67968750000000000     
  0.33593750000000000       0.68196261772392086     
  0.34309031640709398       0.31184031640709398     
  0.34375000000000000       0.31128980380534838     
  0.34309031640709398       0.31184031640709398     
  0.34229981235438112       0.31250000000000000     
  0.34226465437196368       0.31250000000000000     
  0.33888280029894879       0.31544530029894879     
  0.33593750000000000       0.31801040028957450     
  0.33888280029894879       0.31544530029894879     
  0.33593750000000000       0.68198959970825390     
  0.34226465436947012       0.68750000000000000     
  0.34229981237016627       0.68750000000000000     
  0.34375000000000000       0.68871019620782448     
  0.34740649252349809       0.30834399252349809     
  0.35156250000000000       0.30504350393560331     
  0.34375000000000000       0.31124779188232077     
  0.34740649252349809       0.30834399252349809     
  0.34983307585787943       0.69358307585787937     
  0.35156250000000000       0.69495649606354792     
  0.34375000000000000       0.68875220811852800     
  0.34983307585787943       0.69358307585787937     
  0.35628334378015436       0.30159584378015436     
  0.35937500000000000       0.29934272053047239     
  0.35628334378015436       0.30159584378015436     
  0.35204108220699826       0.30468750000000000     
  0.35208767924055967       0.30468750000000000     
  0.35178910088174042       0.30491410088174042     
  0.35156250000000000       0.30508607570204760     
  0.35178910088174042       0.30491410088174042     
  0.35156250000000000       0.69491392437385091     
  0.35208767934056656       0.69531250000000000     
  0.35204108220666358       0.69531250000000000     
  0.35937500000000000       0.70065727946928369     
  0.36552244876457746       0.29520994876457746     
  0.36718750000000000       0.29411158107039287     
  0.36552244876457746       0.29520994876457746     
  0.36299834355713112       0.29687500000000000     
  0.36300197702119241       0.29687500000000000     
  0.36085277724800208       0.29835277724800202     
  0.35937500000000000       0.29936888827776953     
  0.36085277724800208       0.29835277724800202     
  0.35937500000000000       0.70063111172394421     
  0.36300197702368486       0.70312500000000000     
  0.36299834355834792       0.70312500000000000     
  0.36718750000000000       0.70588841893040977     
  0.37029181876094786       0.29216681876094786     
  0.37500000000000000       0.28925334144453679     
  0.36718750000000000       0.29408780731973821     
  0.37029181876094786       0.29216681876094786     
  0.37449935134902523       0.71043685134902534     
  0.37500000000000000       0.71074665855815089     
  0.36718750000000000       0.70591219267757399     
  0.37449935134902523       0.71043685134902534     
  0.38010309532794367       0.28635309532794373     
  0.38281250000000000       0.28481539992274707     
  0.38010309532794367       0.28635309532794373     
  0.37532915007704931       0.28906250000000000     
  0.37532468451809597       0.28906250000000000     
  0.37514494246660712       0.28920744246660712     
  0.37500000000000000       0.28932432284296955     
  0.37514494246660712       0.28920744246660712     
  0.37500000000000000       0.71067567715100444     
  0.37532468451062340       0.71093750000000000     
  0.37532915008166612       0.71093750000000000     
  0.38281250000000000       0.71518460007987317     
  0.39030456756990051       0.28092956756990051     
  0.39062500000000000       0.28076882491495647     
  0.39030456756990051       0.28092956756990051     
  0.38966580157281505       0.28125000000000000     
  0.38962241609564291       0.28125000000000000     
  0.38515511823741277       0.28359261823741277     
  0.38281250000000000       0.28482107006230029     
  0.38515511823741277       0.28359261823741277     
  0.38281250000000000       0.71517892993713450     
  0.38962241609456499       0.71875000000000000     
  0.38966580150778418       0.71875000000000000     
  0.39062500000000000       0.71923117505242129     
  0.39556975793951826       0.27838225793951832     
  0.39843750000000000       0.27701434447681483     
  0.39062500000000000       0.28074090833855064     
  0.39556975793951826       0.27838225793951832     
  0.39159840694624920       0.71972340694624926     
  0.39843750000000000       0.72298565552082494     
  0.39062500000000000       0.71925909166380952     
  0.39159840694624920       0.71972340694624926     
  0.40093141910864144       0.27593141910864144     
  0.40625000000000000       0.27361960744601294     
  0.39843750000000000       0.27701544347506157     
  0.40093141910864144       0.27593141910864144     
  0.40592787578502038       0.72624037578502032     
  0.40625000000000000       0.72638039255503406     
  0.39843750000000000       0.72298455652389149     
  0.40592787578502038       0.72624037578502032     
  0.41198520119055193       0.27136020119055188     
  0.41406250000000000       0.27054382878413241     
  0.41198520119055193       0.27136020119055188     
  0.40669941456939412       0.27343750000000000     
  0.40670464758356900       0.27343750000000000     
  0.40640373620791503       0.27359123620791503     
  0.40625000000000000       0.27366978033597517     
  0.40640373620791503       0.27359123620791503     
  0.40625000000000000       0.72633021966899836     
  0.40670464759330377       0.72656250000000000     
  0.40669941456325198       0.72656250000000000     
  0.41406250000000000       0.72945617121345374     
  0.41768997380327277       0.26925247380327277     
  0.42187500000000000       0.26776524653180145     
  0.41406250000000000       0.27054156441183191     
  0.41768997380327277       0.26925247380327277     
  0.41855489051385764       0.73105489051385764     
  0.42187500000000000       0.73223475346755651     
  0.41406249999999994       0.72945843558881007     
  0.41855489051385764       0.73105489051385764     
  0.42944235818434162       0.26537985818434162     
  0.42968750000000000       0.26530581317816387     
  0.42944235818434162       0.26537985818434162     
  0.42863076381915177       0.26562500000000000     
  0.42857524609032344       0.26562500000000000     
  0.42350104476143924       0.26725104476143924     
  0.42187500000000006       0.26777211623551600     
  0.42350104476143924       0.26725104476143924     
  0.42187500000000000       0.73222788376450909     
  0.42857524609040160       0.73437500000000000     
  0.42863076398730610       0.73437500000000000     
  0.42968750000000000       0.73469418687262700     
  0.43551640801592523       0.26364140801592523     
  0.43750000000000000       0.26308279961974640     
  0.42968750000000000       0.26528291341844307     
  0.43551640801592523       0.26364140801592523     
  0.43016368808318495       0.73485118808318506     
  0.43750000000000000       0.73691720037895936     
  0.42968749999999994       0.73471708658285118     
  0.43016368808318495       0.73485118808318506     
  0.44172905909200255       0.26204155909200255     
  0.44531250000000000       0.26115885238502773     
  0.43750000000000000       0.26308330051331980     
  0.44172905909200255       0.26204155909200255     
  0.44087242736143500       0.73774742736143506     
  0.44531250000000000       0.73884114761683850     
  0.43750000000000000       0.73691669948481386     
  0.44087242736143500       0.73774742736143506     
  0.44807411156114807       0.26057411156114807     
  0.45312500000000000       0.25950387294543786     
  0.44531250000000000       0.26115927264124589     
  0.44807411156114807       0.26057411156114807     
  0.45097888405681957       0.74004138405681963     
  0.45312500000000000       0.74049612705730217     
  0.44531250000000000       0.73884072735601403     
  0.45097888405681957       0.74004138405681963     
  0.45456090148516126       0.25924840148516126     
  0.46093750000000006       0.25811234707792247     
  0.45312500000000000       0.25950422160725023     
  0.45456090148516126       0.25924840148516126     
  0.46057265154440735       0.74182265154440741     
  0.46093750000000000       0.74188765292339842     
  0.45312500000000000       0.74049577839142877     
  0.46057265154440735       0.74182265154440741     
  0.46802843141220685       0.25709093141220685     
  0.46875000000000000       0.25698934800278628     
  0.46802843141220685       0.25709093141220685     
  0.46290297608579328       0.25781250000000000     
  0.46297404496551309       0.25781250000000000     
  0.46121412266760536       0.25808912266760531     
  0.46093750000000000       0.25813260191684495     
  0.46121412266760536       0.25808912266760531     
  0.46093750000000000       0.74186739808710489     
  0.46297404499064299       0.74218749999999989     
  0.46290297610435183       0.74218750000000000     
  0.46875000000000000       0.74301065199982630     
  0.47502515558013958       0.25627515558013958     
  0.47656250000000000       0.25610248321697987     
  0.46875000000000000       0.25697997222969426     
  0.47502515558013958       0.25627515558013958     
  0.46968786775715210       0.74312536775715210     
  0.47656250000000000       0.74389751678386962     
  0.46875000000000000       0.74302002776945630     
  0.46968786775715210       0.74312536775715210     
  0.48221319819985559       0.25565069819985553     
  0.48437500000000000       0.25547779559695760     
  0.47656250000000000       0.25610264547220984     
  0.48221319819985559       0.25565069819985553     
  0.47842099871154958       0.74404599871154953     
  0.48437500000000000       0.74452220440364003     
  0.47656250000000000       0.74389735452719252     
  0.47842099871154958       0.74404599871154953     
  0.48960255224324617       0.25522755224324617     
  0.49218750000000000       0.25510375778327732     
  0.48437500000000000       0.25547790237323259     
  0.48960255224324617       0.25522755224324617     
  0.48682702641483311       0.74463952641483311     
  0.49218749999999994       0.74489624222042683     
  0.48437500000000000       0.74452209762306309     
  0.48682702641483311       0.74463952641483311     
  0.49721119650652684       0.25502369650652684     
  0.50000000000000000       0.25497922276447671     
  0.49218750000000000       0.25510381064260435     
  0.49721119650652684       0.25502369650652684     
  0.49494008552253693       0.74494008552253699     
  0.50000000000000000       0.74502077723528559     
  0.49218750000000000       0.74489618935763335     
  0.49494008552253693       0.74494008552253699     
  0.50505991447772824       0.25505991447772824     
  0.50781250000000000       0.25510381064325016     
  0.50000000000000000       0.25497922276383089     
  0.50505991447772824       0.25505991447772824     
  0.50278880349353117       0.74497630349353117     
  0.50781250000000000       0.74489618935718971     
  0.50000000000000000       0.74502077723572935     
  0.50278880349353117       0.74497630349353117     
  0.51317297358409297       0.25536047358409297     
  0.51562500000000000       0.25547790237419032     
  0.50781250000000000       0.25510375778231964     
  0.51317297358409297       0.25536047358409297     
  0.51039744775622531       0.74477244775622531     
  0.51562500000000000       0.74452209762840482     
  0.50781250000000000       0.74489624221508521     
  0.51039744775622531       0.74477244775622531     
  0.52157900128858392       0.25595400128858398     
  0.52343750000000000       0.25610264547304190     
  0.51562500000000000       0.25547779559612555     
  0.52157900128858392       0.25595400128858398     
  0.51778680180065695       0.74434930180065695     
  0.52343750000000000       0.74389735452655059     
  0.51562500000000000       0.74452220440428185     
  0.51778680180065695       0.74434930180065695     
  0.53031213224319795       0.25687463224319795     
  0.53125000000000000       0.25697997223095259     
  0.52343750000000000       0.25610248321572154     
  0.53031213224319795       0.25687463224319795     
  0.52497484442002806       0.74372484442002806     
  0.53125000000000000       0.74302002776999843     
  0.52343750000000000       0.74389751678332749     
  0.52497484442002806       0.74372484442002806     
  0.53125000000000000       0.25698934800164724     
  0.53709702390611580       0.25781250000000000     
  0.53702595508977002       0.25781250000000000     
  0.53906250000000000       0.25813260192553428     
  0.53878587733004846       0.74191087733004846     
  0.53906250000000000       0.74186739807942736     
  0.53878587733004846       0.74191087733004846     
  0.53702595505820316       0.74218750000000000     
  0.53709702392945324       0.74218750000000000     
  0.53197156858637595       0.74290906858637595     
  0.53125000000000000       0.74301065199506722     
  0.53197156858637595       0.74290906858637595     
  0.53942734845664564       0.25817734845664569     
  0.54687500000000000       0.25950422160761649     
  0.53906250000000011       0.25811234707755620     
  0.53942734845664564       0.25817734845664569     
  0.54543909851519923       0.74075159851519923     
  0.54687500000000000       0.74049577839342151     
  0.53906250000000000       0.74188765292140579     
  0.54543909851519923       0.74075159851519923     
  0.54902111594477998       0.25995861594477998     
  0.55468750000000000       0.26115927264118832     
  0.54687500000000000       0.25950387294549543     
  0.54902111594477998       0.25995861594477998     
  0.55192588843916690       0.73942588843916690     
  0.55468750000000000       0.73884072736005690     
  0.54687500000000000       0.74049612705325929     
  0.55192588843916690       0.73942588843916690     
  0.55912757263832402       0.26225257263832402     
  0.56250000000000000       0.26308330051385731     
  0.55468750000000000       0.26115885238449021     
  0.55912757263832402       0.26225257263832402     
  0.55827094090779372       0.73795844090779372     
  0.56250000000000000       0.73691669948975158     
  0.55468750000000000       0.73884114761190089     
  0.55827094090779372       0.73795844090779372     
  0.56983631191747808       0.26514881191747813     
  0.57031250000000000       0.26528291341769128     
  0.56250000000000000       0.26308279962049819     
  0.56983631191747808       0.26514881191747813     
  0.56448359198442100       0.73635859198442100     
  0.57031249999999989       0.73471708658065549     
  0.56250000000000000       0.73691720038115505     
  0.56448359198442100       0.73635859198442100     
  0.57031250000000000       0.26530581316935170     
  0.57136923615167379       0.26562500000000000     
  0.57142475390867187       0.26562500000000000     
  0.57812500000000000       0.26777211623519404     
  0.57649895523929140       0.73274895523929140     
  0.57812500000000000       0.73222788376635872     
  0.57649895523929140       0.73274895523929140     
  0.57142475390382597       0.73437500000000000     
  0.57136923625532621       0.73437500000000000     
  0.57055764180639701       0.73462014180639701     
  0.57031250000000000       0.73469418679934018     
  0.57055764180639701       0.73462014180639701     
  0.58144510948605621       0.26894510948605621     
  0.58593750000000000       0.27054156441156019     
  0.57812500000000000       0.26776524653207318     
  0.58144510948605621       0.26894510948605621     
  0.58231002619673067       0.73074752619673067     
  0.58593750000000000       0.72945843558823431     
  0.57812500000000000       0.73223475346813238     
  0.58231002619673067       0.73074752619673067     
  0.58593750000000000       0.27054382878483396     
  0.59330058543239095       0.27343750000000000     
  0.59329535241422493       0.27343750000000000     
  0.59375000000000000       0.27366978033484807     
  0.59359626379194697       0.72640876379194697     
  0.59375000000000000       0.72633021966338052     
  0.59359626379194697       0.72640876379194697     
  0.59329535241769238       0.72656250000000000     
  0.59330058543127429       0.72656250000000000     
  0.58801479880936591       0.72863979880936591     
  0.58593750000000000       0.72945617121560491     
  0.58801479880936591       0.72863979880936591     
  0.59407212421691147       0.27375962421691147     
  0.60156250000000000       0.27701544347491813     
  0.59375000000000000       0.27361960744615632     
  0.59407212421691147       0.27375962421691147     
  0.59906858089150483       0.72406858089150483     
  0.60156250000000000       0.72298455652551885     
  0.59375000000000000       0.72638039255340658     
  0.59906858089150483       0.72406858089150483     
  0.60840159305678176       0.28027659305678176     
  0.60937500000000000       0.28074090833830184     
  0.60156250000000000       0.27701434447706363     
  0.60840159305678176       0.28027659305678176     
  0.60443024206072105       0.72161774206072105     
  0.60937500000000000       0.71925909166011981     
  0.60156250000000000       0.72298565552451466     
  0.60443024206072105       0.72161774206072105     
  0.60937500000000000       0.28076882491313759     
  0.61033419842355896       0.28125000000000000     
  0.61037758390422447       0.28125000000000000     
  0.61718750000000000       0.28482107006223079     
  0.61484488176269703       0.71640738176269703     
  0.61718750000000000       0.71517892993823629     
  0.61484488176269703       0.71640738176269703     
  0.61037758390333374       0.71875000000000000     