 TITLE = "2D surface" 
 VARIABLES = "X", "Y" 
ZONE T="TRIANGLES", N=             32, E=             16, DATAPACKING=POINT, 
ZONETYPE=FELINESEG SOLUTIONTIME=   0.000000000000000      STRANDID=         1
   5.0000000000000024E-002  0.30000000000000004     
  0.12500000000000000       0.29999999999999982     
   0.0000000000000000       0.30000000000000016     
   5.0000000000000024E-002  0.30000000000000004     
  0.17500000000000004       0.30000000000000004     
  0.25000000000000000       0.29999999999999960     
  0.12500000000000000       0.30000000000000027     
  0.17500000000000004       0.30000000000000004     
  0.30000000000000004       0.30000000000000004     
  0.37500000000000000       0.29999999999999982     
  0.25000000000000000       0.30000000000000016     
  0.30000000000000004       0.30000000000000004     
  0.42500000000000004       0.30000000000000004     
  0.50000000000000000       0.29999999999999838     
  0.37500000000000000       0.30000000000000115     
  0.42500000000000004       0.30000000000000004     
  0.55000000000000004       0.30000000000000004     
  0.62500000000000000       0.29999999999999871     
  0.50000000000000000       0.30000000000000093     
  0.55000000000000004       0.30000000000000004     
  0.67499999999999927       0.29999999999999927     
  0.75000000000000000       0.30000000000000132     
  0.62500000000000000       0.29999999999999793     
  0.67499999999999927       0.29999999999999927     
  0.79999999999999993       0.29999999999999993     
  0.87500000000000000       0.29999999999999710     
  0.75000000000000000       0.30000000000000193     
  0.79999999999999993       0.29999999999999993     
  0.92499999999999916       0.29999999999999905     
   1.0000000000000000       0.30000000000000177     
  0.87500000000000000       0.29999999999999727     
  0.92499999999999916       0.29999999999999905     
           1           2
           3           4
           5           6
           7           8
           9          10
          11          12
          13          14
          15          16
          17          18
          19          20
          21          22
          23          24
          25          26
          27          28
          29          30
          31          32
