 TITLE = "2D surface" 
 VARIABLES = "X", "Y" 
ZONE T="TRIANGLES", N=           1704, E=            852, DATAPACKING=POINT, 
ZONETYPE=FELINESEG SOLUTIONTIME=  0.1250000000000000E-001 STRANDID=         5
  0.24944843569194525       0.45257343569194525     
  0.25000000000000000       0.44973052726445073     
  0.24944843569194525       0.45257343569194525     
  0.24934142444143234       0.45312500000000000     
  0.24932452233583757       0.45312500000000000     
  0.24828249957165283       0.45921999957165283     
  0.24828249957165283       0.45921999957165283     
  0.24798886960124916       0.46093750000000000     
  0.24798911846793875       0.46093750000000000     
  0.24728017615305167       0.46603017615305170     
  0.24728017615305167       0.46603017615305170     
  0.24690155435260885       0.46875000000000000     
  0.24690174884485300       0.46875000000000000     
  0.24644277160767064       0.47300527160767064     
  0.24644277160767064       0.47300527160767064     
  0.24605908590906683       0.47656250000000000     
  0.24605922925265278       0.47656250000000000     
  0.24578300505258024       0.48015800505258022     
  0.24578300505258024       0.48015800505258022     
  0.24545903497354365       0.48437500000000000     
  0.24545912961899674       0.48437500000000000     
  0.24531522871995670       0.48750272871995670     
  0.24531522871995670       0.48750272871995670     
  0.24509969122954267       0.49218750000000000     
  0.24509973829103368       0.49218750000000000     
  0.24505579137731920       0.49505579137731920     
  0.24505579137731920       0.49505579137731920     
  0.24498003801716708       0.50000000000000000     
  0.24498003801760890       0.50000000000000000     
  0.24502349002141566       0.50283599002141566     
  0.24502349002141566       0.50283599002141566     
  0.24509973829059184       0.50781250000000000     
  0.24509969122958569       0.50781250000000000     
  0.24524013731466848       0.51086513731466843     
  0.24524013731466848       0.51086513731466843     
  0.24545912961895378       0.51562500000000000     
  0.24545903497379190       0.51562500000000000     
  0.24573128585297027       0.51916878585297033     
  0.24573128585297027       0.51916878585297033     
  0.24605922925240453       0.52343750000000000     
  0.24605908590956344       0.52343750000000000     
  0.24652716599728047       0.52777716599728053     
  0.24652716599728047       0.52777716599728053     
  0.24690174884435634       0.53125000000000000     
  0.24690155435202260       0.53125000000000000     
  0.24766391646897340       0.53672641646897346     
  0.24766391646897340       0.53672641646897346     
  0.24798911846852500       0.53906250000000000     
  0.24798886960047520       0.53906250000000000     
  0.24918522561514375       0.54606022561514378     
  0.24918522561514375       0.54606022561514378     
  0.24932452233661154       0.54687500000000000     
  0.24934142444419011       0.54687500000000000     
  0.25000000000000000       0.55026947274976334     
  0.25739681357860478       0.42145931357860472     
  0.25781250000000000       0.42018302053517048     
  0.25739681357860478       0.42145931357860472     
  0.25726142523513507       0.42187500000000000     
  0.25723967345811749       0.42187500000000000     
  0.25555081850057637       0.42742581850057643     
  0.25555081850057637       0.42742581850057643     
  0.25486269439558473       0.42968750000000000     
  0.25486320827355979       0.42968750000000000     
  0.25383005987372215       0.43351755987372215     
  0.25383005987372215       0.43351755987372215     
  0.25275580730860103       0.43750000000000000     
  0.25275624514365269       0.43750000000000000     
  0.25222976004961628       0.43972976004961628     
  0.25222976004961628       0.43972976004961628     
  0.25091157813660514       0.44531250000000000     
  0.25092635384449691       0.44531250000000000     
  0.25076539292133487       0.44607789292133487     
  0.25000000000000000       0.44971744911001077     
  0.25076539292133487       0.44607789292133487     
  0.25709093141243433       0.46802843141243433     
  0.25781250000000000       0.46290297608334607     
  0.25709093141243433       0.46802843141243433     
  0.25698934800313084       0.46875000000000000     
  0.25697997222999297       0.46875000000000000     
  0.25627515557997671       0.47502515557997677     
  0.25627515557997671       0.47502515557997677     
  0.25610248321668116       0.47656250000000000     
  0.25610264547262185       0.47656250000000000     
  0.25565069819968522       0.48221319819968522     
  0.25565069819968522       0.48221319819968522     
  0.25547779559654560       0.48437500000000000     
  0.25547790237366214       0.48437500000000000     
  0.25522755224310756       0.48960255224310756     
  0.25522755224310756       0.48960255224310756     
  0.25510375778284788       0.49218750000000000     
  0.25510381064301407       0.49218750000000000     
  0.25502369650641182       0.49721119650641182     
  0.25502369650641182       0.49721119650641182     
  0.25497922276406748       0.50000000000000000     
  0.25497922276396712       0.50000000000000000     
  0.25505991447768833       0.50505991447768839     
  0.25505991447768833       0.50505991447768839     
  0.25510381064311538       0.50781250000000000     
  0.25510375778183991       0.50781250000000000     
  0.25536047358428055       0.51317297358428049     
  0.25536047358428055       0.51317297358428049     
  0.25547790237467005       0.51562500000000000     
  0.25547779559563888       0.51562500000000000     
  0.25595400128886125       0.52157900128886125     
  0.25595400128886125       0.52157900128886125     
  0.25610264547352851       0.52343750000000000     
  0.25610248321597051       0.52343750000000000     
  0.25687463224298479       0.53031213224298479     
  0.25687463224298479       0.53031213224298479     
  0.25697997223070362       0.53125000000000000     
  0.25698934800164658       0.53125000000000000     
  0.25781250000000000       0.53709702390611114     
  0.25000000000000000       0.55028255086872402     
  0.25092635384002487       0.55468750000000000     
  0.25091157813670933       0.55468750000000000     
  0.25119334844007918       0.55588084844007923     
  0.25119334844007918       0.55588084844007923     
  0.25275624514354855       0.56250000000000000     
  0.25275580730975800       0.56250000000000000     
  0.25377377228099190       0.56627377228099185     
  0.25377377228099190       0.56627377228099185     
  0.25486320827240294       0.57031250000000000     
  0.25486269439444997       0.57031250000000000     
  0.25698917369826280       0.57730167369826280     
  0.25698917369826280       0.57730167369826280     
  0.25723967345925225       0.57812500000000000     
  0.25726142523367374       0.57812500000000000     
  0.25781250000000000       0.57981697946034283     
  0.26365259947729275       0.40427759947729275     
  0.26562500000000000       0.39948946629526505     
  0.26365259947729275       0.40427759947729275     
  0.26284009830531652       0.40625000000000000     
  0.26283440177687728       0.40625000000000000     
  0.26146079245787129       0.40989829245787129     
  0.26146079245787129       0.40989829245787129     
  0.25989293726199686       0.41406249999999994     
  0.25990278011334494       0.41406250000000000     
  0.25936808129943212       0.41561808129943212     
  0.25781250000000000       0.42014368172378158     
  0.25936808129943212       0.41561808129943212     
  0.26537985818762599       0.42944235818762599     
  0.26562500000000000       0.42863076379273957     
  0.26537985818762599       0.42944235818762599     
  0.26530581318614171       0.42968750000000000     
  0.26528291341859711       0.42968750000000000     
  0.26364140801586605       0.43551640801586605     
  0.26364140801586605       0.43551640801586605     
  0.26308279961959236       0.43750000000000000     
  0.26308330051315321       0.43750000000000000     
  0.26204155909201360       0.44172905909201360     
  0.26204155909201360       0.44172905909201360     
  0.26115885238519432       0.44531250000000000     
  0.26115927264115740       0.44531250000000000     
  0.26057411156112664       0.44807411156112664     
  0.26057411156112664       0.44807411156112664     
  0.25950387294552635       0.45312500000000000     
  0.25950422160770398       0.45312500000000000     
  0.25924840148540479       0.45456090148540484     
  0.25924840148540479       0.45456090148540484     
  0.25811234707746872       0.46093749999999994     
  0.25813260191684645       0.46093750000000000     
  0.25808912266760625       0.46121412266760625     
  0.25781250000000000       0.46297404496550376     
  0.25808912266760625       0.46121412266760625     
  0.25781250000000000       0.53702595506580653     
  0.25813260192176773       0.53906249999999989     
  0.25811234707599806       0.53906250000000000     
  0.25817734845492685       0.53942734845492679     
  0.25817734845492685       0.53942734845492679     
  0.25950422160917463       0.54687500000000000     
  0.25950387294496580       0.54687500000000000     
  0.25995861594447717       0.54902111594447711     
  0.25995861594447717       0.54902111594447711     
  0.26115927264171801       0.55468750000000000     
  0.26115885238421771       0.55468750000000000     
  0.26225257263837343       0.55912757263837354     
  0.26225257263837343       0.55912757263837354     
  0.26308330051412981       0.56250000000000000     
  0.26308279962076409       0.56250000000000000     
  0.26514881191715312       0.56983631191715300     
  0.26514881191715312       0.56983631191715300     
  0.26528291341742538       0.57031250000000000     
  0.26530581316932572       0.57031250000000000     
  0.26562500000000000       0.57136923615158763     
  0.25781250000000000       0.57985631827478024     
  0.25990278011285056       0.58593750000000000     
  0.25989293726150176       0.58593750000000000     
  0.26114924762962388       0.58927424762962388     
  0.26114924762962388       0.58927424762962388     
  0.26283440177737238       0.59375000000000000     
  0.26284009830466815       0.59375000000000000     
  0.26562500000000000       0.60051053370316076     
  0.27088570706704390       0.38807320706704396     
  0.27343750000000000       0.38292365719449378     
  0.27088570706704390       0.38807320706704396     
  0.26962119903549819       0.39062500000000000     
  0.26962131169969039       0.39062500000000000     
  0.26837286771444768       0.39337286771444768     
  0.26837286771444768       0.39337286771444768     
  0.26607184365818792       0.39843750000000000     
  0.26609766372835986       0.39843750000000000     
  0.26595520536059841       0.39876770536059841     
  0.26562500000000000       0.39953309093872419     
  0.26595520536059841       0.39876770536059841     
  0.27136020119059362       0.41198520119059356     
  0.27343750000000000       0.40669941456905473     
  0.27136020119059362       0.41198520119059356     
  0.27054382878426581       0.41406250000000000     
  0.27054156441202676       0.41406250000000000     
  0.26925247380328299       0.41768997380328299     
  0.26925247380328299       0.41768997380328299     
  0.26776524653160660       0.42187500000000000     
  0.26777211623494268       0.42187500000000000     
  0.26725104476121581       0.42350104476121581     
  0.26562500000000000       0.42857524609211256     
  0.26725104476121581       0.42350104476121581     
  0.26562500000000000       0.57142475391445691     
  0.26777211623704789       0.57812500000000000     
  0.26776524653179729       0.57812500000000000     
  0.26894510948599198       0.58144510948599204     
  0.26894510948599198       0.58144510948599204     
  0.27054156441183608       0.58593750000000000     
  0.27054382878452710       0.58593750000000000     
  0.27343750000000000       0.59330058543161013     
  0.26562500000000000       0.60046690903738043     
  0.26609766371805094       0.60156250000000011     
  0.26607184365841530       0.60156250000000000     
  0.26644389277748404       0.60238139277748404     
  0.26644389277748404       0.60238139277748404     
  0.26962131169946302       0.60937500000000000     
  0.26962119903422566       0.60937500000000000     
  0.27343750000000000       0.61707634280293810     
  0.27901693230679181       0.37276693230679181     
  0.28125000000000000       0.36892089500992209     
  0.27901693230679181       0.37276693230679181     
  0.27772037927374954       0.37500000000000000     
  0.27770947300705529       0.37500000000000000     
  0.27621209926268941       0.37777459926268941     
  0.27621209926268941       0.37777459926268941     
  0.27349328491273595       0.38281250000000000     
  0.28092956756989668       0.39030456756989668     
  0.28125000000000000       0.38966580157284936     
  0.28092956756989668       0.39030456756989668     
  0.28076882491493926       0.39062500000000000     
  0.28074090833845555       0.39062500000000000     
  0.27838225793953542       0.39556975793953542     
  0.27838225793953542       0.39556975793953542     
  0.27701434447690987       0.39843750000000000     
  0.27701544347511803       0.39843750000000000     
  0.27593141910865571       0.40093141910865571     
  0.27593141910865571       0.40093141910865571     
  0.27361960744595648       0.40625000000000000     
  0.27366978033644851       0.40625000000000000     
  0.27359123620801645       0.40640373620801651     
  0.27343749999999994       0.40670464758264246     
  0.27359123620801645       0.40640373620801651     
  0.27343749999999994       0.59329535241422482     
  0.27366978033484812       0.59375000000000000     
  0.27361960744643865       0.59375000000000000     
  0.27375962421736971       0.59407212421736977     
  0.27375962421736971       0.59407212421736977     
  0.27701544347463580       0.60156250000000000     
  0.27701434447706563       0.60156250000000000     
  0.28027659305677893       0.60840159305677899     
  0.28027659305677893       0.60840159305677899     
  0.28074090833829984       0.60937500000000000     
  0.28076882493125049       0.60937500000000000     
  0.28125000000000000       0.61033419845966630     
  0.27349328491353830       0.61718750000000000     
  0.27355868516086868       0.61730868516086868     
  0.27355868516086868       0.61730868516086868     
  0.27770947300625293       0.62500000000000000     
  0.27772037927453641       0.62500000000000000     
  0.28125000000000000       0.63107910499143316     
  0.28799307126052143       0.35830557126052148     
  0.28906250000000000       0.35670974577121384     
  0.28799307126052143       0.35830557126052148     
  0.28727640277986016       0.35937500000000000     
  0.28724706915826487       0.35937500000000000     
  0.28491735439668331       0.36304235439668331     
  0.28491735439668331       0.36304235439668331     
  0.28228411913867668       0.36718750000000006     
  0.28231547852713318       0.36718750000000000     
  0.28191402050758035       0.36785152050758035     
  0.28125000000000000       0.36894982521943642     
  0.28191402050758035       0.36785152050758035     
  0.28635309532795072       0.38010309532795072     
  0.28906250000000000       0.37532915007697876     
  0.28635309532795072       0.38010309532795072     
  0.28481539992278704       0.38281250000000000     
  0.28482107006213225       0.38281250000000000     
  0.28359261823737836       0.38515511823737836     
  0.28125000000000000       0.38962241609596338     
  0.28359261823737836       0.38515511823737836     
  0.28125000000000000       0.61037758390628183     
  0.28482107006330964       0.61718750000000000     
  0.28481539992274640       0.61718750000000000     
  0.28906250000000000       0.62467084992294941     
  0.28125000000000000       0.63105017479512071     
  0.28231547853593403       0.63281250000000011     
  0.28228411913874052       0.63281250000000000     
  0.28408520409418497       0.63564770409418503     
  0.28408520409418497       0.63564770409418503     
  0.28724706915820097       0.64062500000000000     
  0.28727640278781408       0.64062500000000000     
  0.28906250000000000       0.64329025424065511     
  0.29443489810205298       0.34912239810205298     
  0.29687500000000000       0.34581250561883903     
  0.29443489810205298       0.34912239810205298     
  0.29263601874190426       0.35156250000000000     
  0.29264080453864666       0.35156250000000000     
  0.29117055496117883       0.35367055496117877     
  0.28906250000000000       0.35669310010416350     
  0.29117055496117883       0.35367055496117877     
  0.29520994876454226       0.36552244876454232     
  0.29687500000000000       0.36299834355756277     
  0.29520994876454226       0.36552244876454232     
  0.29411158107010815       0.36718750000000000     
  0.29408780731970924       0.36718750000000000     
  0.29216681876094419       0.37029181876094419     
  0.29216681876094419       0.37029181876094419     
  0.28925334144456577       0.37500000000000000     
  0.28932432284279264       0.37500000000000006     
  0.28920744246659663       0.37514494246659669     
  0.28906250000000000       0.37532468451831519     
  0.28920744246659663       0.37514494246659669     
  0.28906250000000000       0.62467531547952393     
  0.28932432284105014       0.62500000000000000     
  0.28925334144286302       0.62500000000000000     
  0.28956314865329374       0.62550064865329380     
  0.28956314865329374       0.62550064865329380     
  0.29408780732141193       0.63281250000000000     
  0.29411158106930441       0.63281250000000000     
  0.29687500000000000       0.63700165644121887     
  0.28906250000000000       0.64330689989508594     
  0.29264080453812319       0.64843750000000000     
  0.29263601874101036       0.64843750000000000     
  0.29687500000000000       0.65418749437994839     
  0.30122848727151141       0.34029098727151141     
  0.30468750000000000       0.33600417459123944     
  0.30122848727151141       0.34029098727151141     
  0.29843742315272959       0.34375000000000000     
  0.29847557087489701       0.34375000000000000     
  0.29778075427535933       0.34465575427535933     
  0.29687500000000000       0.34583648428077035     
  0.29778075427535933       0.34465575427535933     
  0.30159584378014825       0.35628334378014820     
  0.30468750000000000       0.35204108220709091     
  0.30159584378014825       0.35628334378014820     
  0.29934272053040484       0.35937500000000000     
  0.29936888827787972       0.35937500000000000     
  0.29835277724801412       0.36085277724801412     
  0.29687500000000000       0.36300197702103221     
  0.29835277724801412       0.36085277724801412     
  0.29687500000000000       0.63699802297815422     
  0.29936888827732022       0.64062500000000000     
  0.29934272052960564       0.64062500000000000     
  0.30468750000000000       0.64795891779181258     
  0.29687500000000000       0.65416351572463172     
  0.29847557087904109       0.65625000000000000     
  0.29843742315286004       0.65625000000000000     
  0.30468750000000000       0.66399582540892221     
  0.31204478417971038       0.32766978417971038     
  0.31250000000000000       0.32717339585275745     
  0.31204478417971038       0.32766978417971038     
  0.31162732584761382       0.32812500000000000     
  0.31158078294777841       0.32812500000000000     
  0.30836259482382733       0.33180009482382739     
  0.30836259482382733       0.33180009482382739     
  0.30473957314950073       0.33593750000000000     
  0.31184031640707927       0.34309031640707932     
  0.31250000000000000       0.34229981235473889     
  0.31184031640707927       0.34309031640707932     
  0.31128980380504978       0.34375000000000000     
  0.31124779188231161       0.34375000000000000     
  0.30834399252349776       0.34740649252349781     
  0.30834399252349776       0.34740649252349781     
  0.30504350393561247       0.35156250000000000     
  0.30508607570539725       0.35156250000000000     
  0.30491410088200144       0.35178910088200149     
  0.30468750000000006       0.35208767923614620     
  0.30491410088200144       0.35178910088200149     
  0.30468750000000000       0.64791232101382323     
  0.30508607589510711       0.64843750000000000     
  0.30504350393435481       0.64843750000000000     
  0.30641692413644289       0.65016692413644284     
  0.30641692413644289       0.65016692413644284     
  0.31124779188356932       0.65625000000000000     
  0.31128980381047999       0.65625000000000000     
  0.31250000000000000       0.65770018765176819     
  0.30473957314874822       0.66406250000000000     
  0.30510634647297397       0.66448134647297397     
  0.30510634647297397       0.66448134647297397     
  0.31158078294853092       0.67187500000000000     
  0.31162732583885594       0.67187500000000000     
  0.31250000000000000       0.67282660413769246     
  0.31968812135797831       0.31968812135797831     
  0.32031250000000000       0.31906374271595733     
  0.31968812135797831       0.31968812135797831     
  0.31906374271595583       0.32031250000000000     
  0.31902427248035398       0.32031250000000000     
  0.31583417189702973       0.32364667189702978     
  0.31250000000000000       0.32713142165603543     
  0.31583417189702973       0.32364667189702978     
  0.31912393505674030       0.33474893505674036     
  0.32031250000000000       0.33344878042118664     
  0.31912393505674030       0.33474893505674036     
  0.31803738228392792       0.33593750000000000     
  0.31801040028957456       0.33593750000000000     
  0.31544530029894879       0.33888280029894879     
  0.31250000000000000       0.34226465437196363     
  0.31544530029894879       0.33888280029894879     
  0.31250000000000000       0.65773534562886238     
  0.31801040029029393       0.66406250000000000     
  0.31803738228053113       0.66406250000000000     
  0.32031250000000000       0.66655121957509766     
  0.31250000000000000       0.67286857834451186     
  0.31902427248087761       0.67968750000000000     
  0.31906374271542398       0.67968750000000000     
  0.32031250000000000       0.68093625728351070     
  0.32766978417972475       0.31204478417972481     
  0.32812500000000000       0.31162732584825237     
  0.32766978417972475       0.31204478417972481     
  0.32717339585206118       0.31250000000000000     
  0.32713142165601905       0.31250000000000000     
  0.32364667189702995       0.31583417189702995     
  0.32031250000000000       0.31902427248036963     
  0.32364667189702995       0.31583417189702995     
  0.32676061687944158       0.32676061687944158     
  0.32812500000000000       0.32539623375888599     
  0.32676061687944158       0.32676061687944158     
  0.32539623375888016       0.32812500000000000     
  0.32537773314463603       0.32812500000000000     
  0.32290311604677824       0.33071561604677824     
  0.32031250000000000       0.33342766855285472     
  0.32290311604677824       0.33071561604677824     
  0.32031250000000000       0.66657233144816463     
  0.32537773314560975       0.67187500000000000     
  0.32539623375605409       0.67187500000000000     
  0.32812500000000000       0.67460376623828799     
  0.32031250000000000       0.68097572751892543     
  0.32713142165528236       0.68750000000000000     
  0.32717339589401978       0.68750000000000000     
  0.32812500000000000       0.68837267419022607     
  0.33180009482382500       0.30836259482382500     
  0.33593750000000000       0.30473957314957617     
  0.32812500000000000       0.31158078294770297     
  0.33180009482382500       0.30836259482382500     
  0.33474893505675146       0.31912393505675141     
  0.33593750000000000       0.31803738228440293     
  0.33474893505675146       0.31912393505675141     
  0.33344878042066700       0.32031250000000000     
  0.33342766855284767       0.32031250000000000     
  0.33071561604677835       0.32290311604677835     
  0.32812500000000000       0.32537773314464269     
  0.33071561604677835       0.32290311604677835     
  0.32812500000000000       0.67462226685273896     
  0.33342766855010658       0.67968750000000000     
  0.33344878042977216       0.67968750000000000     
  0.33593750000000000       0.68196261772392086     
  0.33551865351387533       0.69489365351387533     
  0.33593750000000000       0.69526042684942047     
  0.32812500000000000       0.68841921705330034     
  0.33551865351387533       0.69489365351387533     
  0.34029098727150786       0.30122848727150792     
  0.34375000000000000       0.29843742315267019     
  0.34029098727150786       0.30122848727150792     
  0.33600417459131304       0.30468750000000000     
  0.34309031640709398       0.31184031640709398     
  0.34375000000000000       0.31128980380534838     
  0.34309031640709398       0.31184031640709398     
  0.34229981235438112       0.31250000000000000     
  0.34226465437196368       0.31250000000000000     
  0.33888280029894879       0.31544530029894879     
  0.33593750000000000       0.31801040028957450     
  0.33888280029894879       0.31544530029894879     
  0.33593750000000000       0.68198959970825390     
  0.34226465436947012       0.68750000000000000     
  0.34229981237016627       0.68750000000000000     
  0.34375000000000000       0.68871019620782448     
  0.33600417459238635       0.69531250000000000     
  0.34375000000000000       0.70156257684819590     
  0.34912239810206858       0.29443489810206858     
  0.35156250000000000       0.29263601874208373     
  0.34912239810206858       0.29443489810206858     
  0.34581250561859561       0.29687500000000000     
  0.34583648428107150       0.29687500000000000     
  0.34465575427534212       0.29778075427534212     
  0.34375000000000000       0.29847557087466609     
  0.34465575427534212       0.29778075427534212     
  0.34740649252349809       0.30834399252349809     
  0.35156250000000000       0.30504350393560331     
  0.34375000000000000       0.31124779188232077     
  0.34740649252349809       0.30834399252349809     
  0.34983307585787943       0.69358307585787937     
  0.35156250000000000       0.69495649606354792     
  0.34375000000000000       0.68875220811852800     
  0.34983307585787943       0.69358307585787937     
  0.34375000000000000       0.70152442912014012     
  0.34583648427430080       0.70312500000000000     
  0.34581250562022658       0.70312500000000000     
  0.35156250000000000       0.70736398125911859     
  0.35830557126038970       0.28799307126038964     
  0.35937500000000000       0.28727640277874567     
  0.35830557126038970       0.28799307126038964     
  0.35670974577287695       0.28906250000000000     
  0.35669310010378030       0.28906250000000000     
  0.35367055496120686       0.29117055496120686     
  0.35156250000000000       0.29264080453891395     
  0.35367055496120686       0.29117055496120686     
  0.35628334378015436       0.30159584378015436     
  0.35937500000000000       0.29934272053047239     
  0.35628334378015436       0.30159584378015436     
  0.35204108220699826       0.30468750000000000     
  0.35208767924055967       0.30468750000000000     
  0.35178910088174042       0.30491410088174042     
  0.35156250000000000       0.30508607570204760     
  0.35178910088174042       0.30491410088174042     
  0.35156250000000000       0.69491392437385091     
  0.35208767934056656       0.69531250000000000     
  0.35204108220666358       0.69531250000000000     
  0.35937500000000000       0.70065727946928369     
  0.35156250000000000       0.70735919546579251     
  0.35669310011052840       0.71093750000000000     
  0.35670974574498487       0.71093750000000000     
  0.35937500000000000       0.71272359720256273     
  0.36304235439667654       0.28491735439667659     
  0.36718750000000000       0.28228411913885648     
  0.35937500000000000       0.28724706915808507     
  0.36304235439667654       0.28491735439667659     
  0.36552244876457746       0.29520994876457746     
  0.36718750000000000       0.29411158107039287     
  0.36552244876457746       0.29520994876457746     
  0.36299834355713112       0.29687500000000000     
  0.36300197702119241       0.29687500000000000     
  0.36085277724800208       0.29835277724800202     
  0.35937500000000000       0.29936888827776953     
  0.36085277724800208       0.29835277724800202     
  0.35937500000000000       0.70063111172394421     
  0.36300197702368486       0.70312500000000000     
  0.36299834355834792       0.70312500000000000     
  0.36718750000000000       0.70588841893040977     
  0.36435229590469115       0.71591479590469120     
  0.36718750000000000       0.71771588085976434     
  0.35937500000000000       0.71275293084329405     
  0.36435229590469115       0.71591479590469120     
  0.37276693230679198       0.27901693230679198     
  0.37500000000000000       0.27772037927375048     
  0.37276693230679198       0.27901693230679198     
  0.36892089500992031       0.28125000000000000     
  0.36894982521835912       0.28125000000000000     
  0.36785152050768033       0.28191402050768033     
  0.36718750000000000       0.28231547852778438     
  0.36785152050768033       0.28191402050768033     
  0.37029181876094786       0.29216681876094786     
  0.37500000000000000       0.28925334144453679     
  0.36718750000000000       0.29408780731973821     
  0.37029181876094786       0.29216681876094786     
  0.37449935134902523       0.71043685134902534     
  0.37500000000000000       0.71074665855815089     
  0.36718750000000000       0.70591219267757399     
  0.37449935134902523       0.71043685134902534     