 TITLE = "2D surface" 
 VARIABLES = "X", "Y" 
ZONE T="TRIANGLES", N=            128, E=             64, DATAPACKING=POINT, 
ZONETYPE=FELINESEG SOLUTIONTIME=  0.2500000000000000      STRANDID=        21
   1.8750000000000010E-002  0.30000000000000004     
   3.1250000000000000E-002  0.30000000000000004     
   0.0000000000000000       0.30000000000000004     
   1.8750000000000010E-002  0.30000000000000004     
   5.0000000000000010E-002  0.30000000000000004     
   6.2500000000000000E-002  0.29999999999999999     
   3.1250000000000000E-002  0.30000000000000004     
   5.0000000000000010E-002  0.30000000000000004     
   8.1250000000000100E-002  0.30000000000000010     
   9.3750000000000000E-002  0.30000000000000027     
   6.2500000000000000E-002  0.29999999999999982     
   8.1250000000000100E-002  0.30000000000000010     
  0.11250000000000002       0.30000000000000004     
  0.12500000000000000       0.29999999999999982     
   9.3750000000000000E-002  0.30000000000000027     
  0.11250000000000002       0.30000000000000004     
  0.14375000000000002       0.30000000000000004     
  0.15625000000000000       0.29999999999999977     
  0.12500000000000000       0.30000000000000038     
  0.14375000000000002       0.30000000000000004     
  0.17500000000000060       0.30000000000000060     
  0.18750000000000000       0.30000000000000177     
  0.15625000000000000       0.29999999999999882     
  0.17500000000000060       0.30000000000000060     
  0.20624999999999999       0.30000000000000004     
  0.21875000000000000       0.29999999999999799     
  0.18750000000000000       0.30000000000000304     
  0.20624999999999999       0.30000000000000004     
  0.23750000000000068       0.30000000000000071     
  0.25000000000000000       0.30000000000000204     
  0.21875000000000000       0.29999999999999871     
  0.23750000000000068       0.30000000000000071     
  0.26875000000000082       0.30000000000000082     
  0.28125000000000000       0.30000000000000243     
  0.25000000000000000       0.29999999999999838     
  0.26875000000000082       0.30000000000000082     
  0.30000000000000004       0.30000000000000004     
  0.31250000000000000       0.29999999999999716     
  0.28125000000000000       0.30000000000000437     
  0.30000000000000004       0.30000000000000004     
  0.33125000000000099       0.30000000000000104     
  0.34375000000000000       0.30000000000000304     
  0.31250000000000000       0.29999999999999805     
  0.33125000000000099       0.30000000000000104     
  0.36250000000000121       0.30000000000000121     
  0.37500000000000000       0.30000000000000360     
  0.34375000000000000       0.29999999999999766     
  0.36250000000000121       0.30000000000000121     
  0.39375000000000004       0.30000000000000004     
  0.40625000000000000       0.29999999999999627     
  0.37500000000000000       0.30000000000000571     
  0.39375000000000004       0.30000000000000004     
  0.42499999999999999       0.30000000000000004     
  0.43750000000000000       0.29999999999999544     
  0.40625000000000000       0.30000000000000693     
  0.42499999999999999       0.30000000000000004     
  0.45625000000000127       0.30000000000000127     
  0.46875000000000000       0.30000000000000376     
  0.43750000000000000       0.29999999999999749     
  0.45625000000000127       0.30000000000000127     
  0.48750000000000138       0.30000000000000138     
  0.50000000000000000       0.30000000000000404     
  0.46875000000000000       0.29999999999999738     
  0.48750000000000138       0.30000000000000138     
  0.51875000000000160       0.30000000000000165     
  0.53125000000000000       0.30000000000000493     
  0.50000000000000000       0.29999999999999677     
  0.51875000000000160       0.30000000000000165     
  0.55000000000000182       0.30000000000000182     
  0.56250000000000000       0.30000000000000537     
  0.53125000000000000       0.29999999999999649     
  0.55000000000000182       0.30000000000000182     
  0.58125000000000004       0.30000000000000004     
  0.59375000000000000       0.29999999999998522     
  0.56250000000000000       0.30000000000002225     
  0.58125000000000004       0.30000000000000004     
  0.61250000000000171       0.30000000000000171     
  0.62500000000000000       0.30000000000000510     
  0.59375000000000000       0.29999999999999660     
  0.61250000000000171       0.30000000000000171     
  0.64375000000000193       0.30000000000000193     
  0.65625000000000000       0.30000000000000576     
  0.62500000000000000       0.29999999999999616     
  0.64375000000000193       0.30000000000000193     
  0.67500000000000215       0.30000000000000215     
  0.68750000000000000       0.30000000000000643     
  0.65625000000000000       0.29999999999999571     
  0.67500000000000215       0.30000000000000215     
  0.70625000000000215       0.30000000000000215     
  0.71875000000000000       0.30000000000000643     
  0.68750000000000000       0.29999999999999571     
  0.70625000000000215       0.30000000000000215     
  0.73750000000000226       0.30000000000000215     
  0.75000000000000000       0.30000000000000643     
  0.71875000000000000       0.29999999999999571     
  0.73750000000000226       0.30000000000000215     
  0.76875000000000004       0.30000000000000004     
  0.78125000000000000       0.29999999999998106     
  0.75000000000000000       0.30000000000002847     
  0.76875000000000004       0.30000000000000004     
  0.80000000000000226       0.30000000000000232     
  0.81250000000000000       0.30000000000000693     
  0.78125000000000000       0.29999999999999544     
  0.80000000000000226       0.30000000000000232     
  0.83125000000000204       0.30000000000000210     
  0.84375000000000000       0.30000000000000626     
  0.81250000000000000       0.29999999999999588     
  0.83125000000000204       0.30000000000000210     
  0.86250000000000004       0.30000000000000004     
  0.87500000000000000       0.29999999999997751     
  0.84375000000000000       0.30000000000003380     
  0.86250000000000004       0.30000000000000004     
  0.89375000000001659       0.30000000000001659     
  0.90625000000000000       0.30000000000004973     
  0.87500000000000000       0.29999999999996685     
  0.89375000000001659       0.30000000000001659     
  0.92500000000000004       0.30000000000000004     
  0.93750000000000000       0.29999999999997590     
  0.90625000000000000       0.30000000000003624     
  0.92500000000000004       0.30000000000000004     
  0.95625000000001792       0.30000000000001786     
  0.96875000000000000       0.30000000000005356     
  0.93750000000000000       0.29999999999996435     
  0.95625000000001792       0.30000000000001786     
  0.98750000000000004       0.30000000000000004     
   1.0000000000000000       0.29999999999997501     
  0.96875000000000000       0.30000000000003757     
  0.98750000000000004       0.30000000000000004     
           1           2
           3           4
           5           6
           7           8
           9          10
          11          12
          13          14
          15          16
          17          18
          19          20
          21          22
          23          24
          25          26
          27          28
          29          30
          31          32
          33          34
          35          36
          37          38
          39          40
          41          42
          43          44
          45          46
          47          48
          49          50
          51          52
          53          54
          55          56
          57          58
          59          60
          61          62
          63          64
          65          66
          67          68
          69          70
          71          72
          73          74
          75          76
          77          78
          79          80
          81          82
          83          84
          85          86
          87          88
          89          90
          91          92
          93          94
          95          96
          97          98
          99         100
         101         102
         103         104
         105         106
         107         108
         109         110
         111         112
         113         114
         115         116
         117         118
         119         120
         121         122
         123         124
         125         126
         127         128
