 TITLE = "2D moments" 
 VARIABLES = "X", "Y" 
ZONE F="POINT", I=              8, J=1, K=1, SOLUTIONTIME=    0.000000000000000      STRANDID=         1
   6.2500000000000000E-002  0.33749999999999997     
  0.18750000000000000       0.33749999999999997     
  0.31249999999999989       0.33749999999999991     
  0.43750000000000006       0.33750000000000008     
  0.56250000000000011       0.33750000000000008     
  0.68749999999999944       0.33749999999999980     
  0.81250000000000111       0.33750000000000041     
  0.93749999999999933       0.33749999999999980     
