 TITLE = "2D moments" 
 VARIABLES = "X", "Y" 
ZONE F="POINT", I=             32, J=1, K=1, SOLUTIONTIME=   0.2500000000000000E-001 STRANDID=         3
   1.5624999999999953E-002  0.29062499999999902     
   4.6874999999999854E-002  0.29062499999999925     
   7.8124999999999847E-002  0.29062499999999974     
  0.10937499999999954       0.29062499999999913     
  0.14062499999999944       0.29062499999999913     
  0.17187500000000003       0.29062500000000036     
  0.20312499999999836       0.29062499999999791     
  0.23437500000000000       0.29062500000000036     
  0.26562500000000000       0.29062500000000036     
  0.29687499999999772       0.29062499999999791     
  0.32812500000000000       0.29062500000000036     
  0.35937500000000011       0.29062500000000036     
  0.39062499999999684       0.29062499999999791     
  0.42187499999999650       0.29062499999999758     
  0.45312499999999989       0.29062499999999974     
  0.48437499999999989       0.29062499999999974     
  0.51562499999999989       0.29062499999999974     
  0.54687500000000000       0.29062499999999974     
  0.57812499999999067       0.29062499999999497     
  0.60937499999999978       0.29062499999999974     
  0.64062499999999989       0.29062499999999974     
  0.67187500000000011       0.29062499999999974     
  0.70312500000000022       0.29062499999999974     
  0.73437500000000033       0.29062499999999974     
  0.76562499999998790       0.29062499999999497     
  0.79687499999999989       0.29062499999999974     
  0.82812499999999989       0.29062499999999963     
  0.85937499999998612       0.29062499999999469     
  0.89062500000001388       0.29062500000000419     
  0.92187499999998535       0.29062499999999469     
  0.95312500000001521       0.29062500000000419     
  0.98437499999998468       0.29062499999999469     
