 TITLE = "2D moments" 
 VARIABLES = "X", "Y" 
ZONE F="POINT", I=            252, J=1, K=1, SOLUTIONTIME=    0.000000000000000      STRANDID=         1
  0.25753808338238954       0.46680098743572557     
  0.25715159233741797       0.47310562418675667     
  0.25679329418070962       0.48066990904845303     
  0.25654933484674902       0.48837784537202672     
  0.25642675938563253       0.49612302163535460     
  0.25642675938561826       0.50387697836459822     
  0.25654933484674924       0.51162215462745164     
  0.25679329418063690       0.51933009095096527     
  0.25715159233735657       0.52689437581251319     
  0.25753808338238920       0.53319901256069058     
  0.26551860428668195       0.42933525456474747     
  0.26476404083189309       0.43458696019942766     
  0.26382898446182684       0.44176381601234987     
  0.26295670713837493       0.44942234668002889     
  0.26220479374854977       0.45716418207235493     
  0.26173914997481906       0.46486107810407157     
  0.26173914997479952       0.53513892189587409     
  0.26220479374831351       0.54283581792739732     
  0.26295670713841851       0.55057765331981778     
  0.26382898446173736       0.55823618398728725     
  0.26476404083210747       0.56541303980165381     
  0.26551860427939517       0.57066474541720280     
  0.27247291240269211       0.41160812619329445     
  0.27122047332278110       0.41839065459941910     
  0.26995749159303067       0.42600473349657558     
  0.26995749159300775       0.57399526650310917     
  0.27122047332276311       0.58160934540065257     
  0.27247291240275129       0.58839187380693814     
  0.28108960823928264       0.39030526715799019     
  0.27981987964263383       0.39555390401017593     
  0.27820275968030589       0.40271641139911046     
  0.27734707204071779       0.41015948633701943     
  0.27734707204072806       0.58984051366300672     
  0.27820275968034697       0.59728358860099751     
  0.27981987964256344       0.60444609598996257     
  0.28108960824774176       0.60969473285133235     
  0.28764677076598227       0.38031803344880338     
  0.28583190524325719       0.38712582085375807     
  0.28583190524324392       0.61287417914601150     
  0.28764677076619116       0.61968196655104646     
  0.29595385510999095       0.36579111105811535     
  0.29408565447755430       0.37169850217326644     
  0.29297142010082200       0.37890888417924740     
  0.29297142010083299       0.62109111582077603     
  0.29408565447730567       0.62830149782629829     
  0.29595385510940192       0.63420888894169036     
  0.30290587810039937       0.35693033978845690     
  0.30102733506257889       0.36349710851506012     
  0.30102733506259099       0.63650289148496353     
  0.30290587810011510       0.64306966021119061     
  0.31209660102978853       0.34326660391916441     
  0.30995445743770333       0.34858386422114407     
  0.30860023157309530       0.35547515925971090     
  0.30860023157301431       0.64452484074012850     
  0.30995445743743161       0.65141613577845847     
  0.31209660103143427       0.65673339608314174     
  0.31955412612368528       0.33510792561472214     
  0.31723362018122125       0.34056227352554513     
  0.31723362018112161       0.65943772647434806     
  0.31955412612186551       0.66489207438466780     
  0.32721540938924970       0.32721540938925164     
  0.32484440352783922       0.33263457667802926     
  0.32484440352783844       0.66736542332178816     
  0.32721540938843735       0.67278459060967666     
  0.33510792561226060       0.31955412612134043     
  0.33263457667804552       0.32484440352785493     
  0.33263457667825563       0.67515559647244117     
  0.33510792561553737       0.68044587388116973     
  0.34326660391827757       0.31209660102896825     
  0.34056227352554502       0.31723362018122114     
  0.34056227352572493       0.68276637981924326     
  0.34326660392279212       0.68790339897631803     
  0.34858386422116638       0.30995445743772582     
  0.34858386422093046       0.69004554256205008     
  0.35693033978833183       0.30290587810029262     
  0.35547515925969758       0.30860023157308369     
  0.35547515925967088       0.69139976842683737     
  0.35693033978829164       0.69709412189952813     
  0.36579111105767564       0.29595385510963740     
  0.36349710851504546       0.30102733506256674     
  0.36349710851501632       0.69897266493733323     
  0.36579111105796863       0.70404614489080086     
  0.37169850217328670       0.29408565447757085     
  0.37169850217366968       0.70591434552331300     
  0.38031803344885856       0.28764677076602474     
  0.37890888417926172       0.29297142010083299     
  0.37890888417929008       0.70702857989925838     
  0.38031803344997184       0.71235322923559863     
  0.39030526715797653       0.28108960823928392     
  0.38712582085381303       0.28583190524329738     
  0.38712582085388642       0.71416809475678000     
  0.39030526714622710       0.71891039173005189     
  0.39555390401027396       0.27981987964270510     
  0.39555390400928447       0.72018012035603574     
  0.40271641139908976       0.27820275968029212     
  0.40271641139925130       0.72179724031996473     
  0.41160812619347154       0.27247291240281041     
  0.41015948633698857       0.27734707204069708     
  0.41015948633697324       0.72265292795920333     
  0.41160812619195214       0.72752708759504159     
  0.41839065459933245       0.27122047332272498     
  0.41839065459921898       0.72877952667697588     
  0.42933525457655647       0.26551860429397112     
  0.42600473349668549       0.26995749159309951     
  0.42600473349668427       0.73004250840689233     
  0.42933525461189803       0.73448139579152361     
  0.43458696019924709       0.26476404083178490     
  0.43458696019835036       0.73523595916692064     
  0.44176381601242642       0.26382898446187109     
  0.44176381601294734       0.73617101553900044     
  0.44942234668005476       0.26295670713838964     
  0.44942234668060621       0.73704329286233150     
  0.45716418207225545       0.26220479374849331     
  0.45716418207245313       0.73779520625185824     
  0.46680098743662729       0.25753808338288564     
  0.46486107810407157       0.26173914997481917     
  0.46486107810403648       0.73826085002511066     
  0.46680098744196585       0.74246191662400596     
  0.47310562418642665       0.25715159233723800     
  0.47310562418729890       0.74284840766283977     
  0.48066990904817414       0.25679329418056057     
  0.48066990904859047       0.74320670581907533     
  0.48837784537179874       0.25654933484663023     
  0.48837784537362938       0.74345066515517455     
  0.49612302163516053       0.25642675938553144     
  0.49612302163505795       0.74357324061389563     
  0.50387697836453504       0.25642675938558618     
  0.50387697836474366       0.74357324061453423     
  0.51162215462769411       0.25654933484687048     
  0.51162215462913518       0.74345066515517622     
  0.51933009095126870       0.25679329418078573     
  0.51933009095095872       0.74320670581863946     
  0.52689437581226839       0.25715159233723689     
  0.52689437581326370       0.74284840766284366     
  0.53319901256069202       0.25753808338239031     
  0.53513892189583323       0.26173914997477987     
  0.53513892189587398       0.73826085002511077     
  0.53319901256992897       0.74246191662686978     
  0.54283581792768032       0.26220479374844863     
  0.54283581792791646       0.73779520625172856     
  0.55057765331994146       0.26295670713847735     
  0.55057765332043285       0.73704329286233128     
  0.55823618398738362       0.26382898446178210     
  0.55823618398936714       0.73617101554049558     
  0.56541303980142510       0.26476404083199945     
  0.56541303979934021       0.73523595916631790     
  0.57066474541723122       0.26551860427940482     
  0.57399526650335653       0.26995749159312232     
  0.57399526650380062       0.73004250840752094     
  0.57066474546423385       0.73448139575138349     
  0.58160934540073383       0.27122047332280019     
  0.58160934540072773       0.72877952667738066     
  0.58839187380719249       0.27247291240286869     
  0.58984051366300672       0.27734707204072806     
  0.58984051366300694       0.72265292795931324     
  0.58839187380693514       0.72752708759756990     
  0.59728358860093611       0.27820275968031871     
  0.59728358860123543       0.72179724032010750     
  0.60444609598996157       0.27981987964256272     
  0.60444609598754417       0.72018012035459855     
  0.60969473283909881       0.28108960824209839     
  0.61287417914618658       0.28583190524332486     
  0.61287417914647757       0.71416809475705045     
  0.60969473283903286       0.71891039175879645     
  0.61968196655050134       0.28764677076593914     
  0.62109111582077603       0.29297142010083299     
  0.62109111582082344       0.70702857989925827     
  0.61968196655248386       0.71235322923560029     
  0.62830149782644062       0.29408565447737151     
  0.62830149782694034       0.70591434552266696     
  0.63420888893915328       0.29595385510822309     
  0.63650289148491102       0.30102733506256640     
  0.63650289148475470       0.69897266493721799     
  0.63420888894574390       0.70404614489417283     
  0.64306966021149492       0.30290587810025771     
  0.64452484074027605       0.30860023157308369     
  0.64452484074027583       0.69139976842689010     
  0.64306966021270984       0.69709412190084097     
  0.65141613577907898       0.30995445743772504     
  0.65141613577961277       0.69004554256308481     
  0.65673339608313686       0.31209660103142894     
  0.65943772647427823       0.31723362018108808     
  0.65943772647427901       0.68276637981859079     
  0.65673339606926306       0.68790339895815633     
  0.66489207438575881       0.31955412612238743     
  0.66736542332191806       0.32484440352790100     
  0.66736542332165982       0.67515559647184642     
  0.66489207438141218       0.68044587387229816     
  0.67278459060967344       0.32721540938843846     
  0.67515559647244072       0.33263457667825530     
  0.67515559647184753       0.66736542332165727     
  0.67278459060551543       0.67278459060550000     
  0.68044587387671240       0.33510792561335090     
  0.68276637981938826       0.34056227352579665     
  0.68276637981800881       0.65943772647371679     
  0.68044587387228150       0.66489207438141762     
  0.68790339897632646       0.34326660392278030     
  0.69004554256176864       0.34858386422078846     
  0.69139976842683748       0.35547515925967088     
  0.69139976842689044       0.64452484074027638     
  0.69004554256195649       0.65141613577854696     
  0.68790339896541253       0.65673339607623571     
  0.69709412189902720       0.35693033978803246     
  0.69897266493767840       0.36349710851519385     
  0.69897266493756349       0.63650289148506833     
  0.69709412190050901       0.64306966021240841     
  0.70404614489304873       0.36579111105913414     
  0.70591434552315124       0.37169850217358369     
  0.70702857989925827       0.37890888417929008     
  0.70702857989915058       0.62109111582072851     
  0.70591434552347354       0.62830149782765288     
  0.70404614489304773       0.63420888894472671     
  0.71235322923518274       0.38031803344974963     
  0.71416809475745702       0.38712582085425246     
  0.71416809475691501       0.61287417914636144     
  0.71235322923518440       0.61968196655212704     
  0.71891039175887483       0.39030526716188879     
  0.72018012035747525       0.39555390401007245     
  0.72179724031996551       0.40271641139925340     
  0.72265292795909331       0.41015948633691152     
  0.72265292795909342       0.58984051366282675     
  0.72179724031924153       0.59728358860051789     
  0.72018012035675805       0.60444609598936072     
  0.71891039178769878       0.60969473286346709     
  0.72752708759693541       0.41160812619302389     
  0.72877952667778134       0.41839065459967945     
  0.73004250840714491       0.42600473349683227     
  0.73004250840752205       0.57399526650380106     
  0.72877952667717616       0.58160934540056886     
  0.72752708759757401       0.58839187380692859     
  0.73448139579151639       0.42933525461190092     
  0.73523595916691942       0.43458696019835813     
  0.73617101553874986       0.44176381601279979     
  0.73704329286216475       0.44942234668050435     
  0.73779520625134265       0.45716418207213622     
  0.73826085002511088       0.46486107810403660     
  0.73826085002522346       0.53513892189595591     
  0.73779520625147144       0.54283581792772684     
  0.73704329286216352       0.55057765332031372     
  0.73617101553900055       0.55823618398823238     
  0.73523595916812468       0.56541303980073998     
  0.73448139575133142       0.57066474546429402     
  0.74246191662114591       0.46680098744019066     
  0.74284840766421512       0.47310562418817181     
  0.74320670581907700       0.48066990904858703     
  0.74345066515483060       0.48837784537339946     
  0.74357324061421393       0.49612302163527061     
  0.74357324061420738       0.50387697836452616     
  0.74345066515587432       0.51162215462962135     
  0.74320670581864134       0.51933009095096216     
  0.74284840766283500       0.52689437581325915     
  0.74246191661831207       0.53319901256375923     
