 TITLE = "2D moments" 
 VARIABLES = "X", "Y" 
ZONE F="POINT", I=             32, J=1, K=1, SOLUTIONTIME=   0.1375000000000000      STRANDID=        12
   1.5625000000000000E-002  0.30625000000000002     
   4.6875000000000007E-002  0.30624999999999991     
   7.8124999999999875E-002  0.30624999999999952     
  0.10937500000000012       0.30625000000000058     
  0.14062500000000019       0.30625000000000058     
  0.17187499999999911       0.30624999999999880     
  0.20312500000000153       0.30625000000000230     
  0.23437499999999900       0.30624999999999863     
  0.26562499999999878       0.30624999999999863     
  0.29687500000000216       0.30625000000000213     
  0.32812499999999850       0.30624999999999852     
  0.35937499999999822       0.30624999999999858     
  0.39062500000000283       0.30625000000000213     
  0.42187500000000344       0.30625000000000202     
  0.45312499999999811       0.30624999999999858     
  0.48437499999999800       0.30624999999999858     
  0.51562499999999756       0.30624999999999858     
  0.54687499999999734       0.30624999999999852     
  0.57812500000001110       0.30625000000000563     
  0.60937499999999745       0.30624999999999863     
  0.64062499999999711       0.30624999999999863     
  0.67187499999999678       0.30624999999999869     
  0.70312499999999678       0.30624999999999852     
  0.73437499999999678       0.30624999999999863     
  0.76562500000001421       0.30625000000000563     
  0.79687499999999656       0.30624999999999841     
  0.82812499999999689       0.30624999999999847     
  0.85937500000001688       0.30625000000000546     
  0.89062499999997513       0.30624999999999108     
  0.92187500000001810       0.30625000000000541     
  0.95312499999997324       0.30624999999999114     
  0.98437500000001876       0.30625000000000541     
