 TITLE = "2D moments" 
 VARIABLES = "X", "Y" 
ZONE F="POINT", I=            496, J=1, K=1, SOLUTIONTIME=   0.6250000000000000E-002 STRANDID=         3
  0.24978047026837008       0.45199350820627709     
  0.24927298139855225       0.45767857804802370     
  0.24870336057510539       0.46512090735313444     
  0.24823179080972138       0.47281212196695299     
  0.24787601726051262       0.48056088877943787     
  0.24763855638908688       0.48833082167447439     
  0.24751981569000639       0.49610946118924371     
  0.24751981569002113       0.50389053881087198     
  0.24763855638913312       0.51166917832553549     
  0.24787601726056427       0.51943911122063491     
  0.24823179080988761       0.52718787803321487     
  0.24870336057507664       0.53487909264656508     
  0.24927298139800452       0.54232142195129784     
  0.24978047026990688       0.54800649179834027     
  0.25762880782050562       0.42131100734513638     
  0.25679815477673734       0.42665985321220229     
  0.25576476517398100       0.43393649198223488     
  0.25479948324090296       0.44160712427632687     
  0.25403066389830770       0.44930306308112500     
  0.25375717636304435       0.46476341247561243     
  0.25327552532317510       0.47256891518004973     
  0.25289792741065098       0.48039849364093123     
  0.25264652563537859       0.48823521154466948     
  0.25252089519174342       0.49607766134704151     
  0.25252089519175164       0.50392233865298441     
  0.25264652563537848       0.51176478845557904     
  0.25289792741067640       0.51960150635927194     
  0.25327552532318698       0.52743108482009216     
  0.25375717636304435       0.53523658752453473     
  0.25403066389843537       0.55069693691910415     
  0.25479948324095258       0.55839287572368523     
  0.25576476517414992       0.56606350801812322     
  0.25679815477626228       0.57334014678702561     
  0.25762880782050118       0.57868899265322049     
  0.26469667799588631       0.40399647993351928     
  0.26340972250830125       0.41060563932554522     
  0.26209180407075849       0.41818717750282125     
  0.26170822141300870       0.42577140261023072     
  0.26102934646230080       0.43336890361817221     
  0.26000261467879082       0.44111546161863391     
  0.25911738174487425       0.44879092425074074     
  0.25839150142896722       0.45612125362805400     
  0.25791920234015908       0.46161634614982572     
  0.25791920234379717       0.53838365386029863     
  0.25839150143058465       0.54387874637364186     
  0.25911738174478272       0.55120907574958145     
  0.26000261467886365       0.55888453838166130     
  0.26102934646225229       0.56663109638158293     
  0.26170822141302891       0.57422859738981935     
  0.26209180407080229       0.58181282249722599     
  0.26340972250830130       0.58939436067428197     
  0.26469667799523744       0.59600352006613444     
  0.27216536983399542       0.38805787094243954     
  0.27054813577899450       0.39494456736460021     
  0.26954722044719687       0.40235883583509896     
  0.26890924108558617       0.40984925354315715     
  0.26748024071214732       0.41745648484220449     
  0.26634073257697671       0.42410842406925786     
  0.26634073257714830       0.57589157593310170     
  0.26748024071216914       0.58254351515770852     
  0.26890924108557362       0.59015074645679366     
  0.26954722044719676       0.59764116416494129     
  0.27054813577899584       0.60505543263546313     
  0.27216536983395440       0.61194212905651435     
  0.28007344523528088       0.37297362323787597     
  0.27829455250224938       0.37939218777187161     
  0.27732953332514110       0.38670513807315871     
  0.27626393969137153       0.39408528290549294     
  0.27463312018964070       0.40116780621175385     
  0.27350710342445267       0.40641858318677460     
  0.27350710341257595       0.59358141678304355     
  0.27463312018951103       0.59883219378790553     
  0.27626393969140228       0.60591471709444666     
  0.27732953332510901       0.61329486192680593     
  0.27829455250234975       0.62060781222831307     
  0.28007344523516192       0.62702637676279704     
  0.28846713242533867       0.35848658193979965     
  0.28667518571946954       0.36403319513708982     
  0.28521172722717347       0.37114559837924010     
  0.28427955252119591       0.37840928285678677     
  0.28244037982910047       0.38508248416739194     
  0.28244037982915376       0.61491751583353416     
  0.28427955252112236       0.62159071714326597     
  0.28521172722715166       0.62885440162066952     
  0.28667518571946954       0.63596680486293733     
  0.28846713242673927       0.64151341806499229     
  0.29546199333316098       0.34964582568578351     
  0.29344908489396304       0.35585749036947539     
  0.29265600198583547       0.36301829307458816     
  0.29073996146716491       0.36988696398018323     
  0.28913727447505772       0.37512632033160065     
  0.28913727445930842       0.62487367963482088     
  0.29073996146766112       0.63011303602068536     
  0.29265600198589720       0.63698170692543221     
  0.29344908489405391       0.64414250963052710     
  0.29546199333254108       0.65035417431404940     
  0.30260410823545725       0.34116803171841392     
  0.30087611540274406       0.34774655960899598     
  0.29977630984606102       0.35477742417844499     
  0.29770629961514194       0.36058399476230707     
  0.29770629961499079       0.63941600523739717     
  0.29977630984619541       0.64522257582172182     
  0.30087611540267462       0.65225344039097677     
  0.30260410823551304       0.65883196828163004     
  0.31220910855194123       0.32780779855943182     
  0.30988071255109617       0.33305751418500645     
  0.30854265471919479       0.33979382161861366     
  0.30688040533324956       0.34648823780681198     
  0.30482040295454682       0.35173750129878667     
  0.30482040300172730       0.64826249879471021     
  0.30688040533359168       0.65351176219368845     
  0.30854265471917075       0.66020617838135276     
  0.30988071255084276       0.66694248581481641     
  0.31220910854678524       0.67219220143944181     
  0.31989624740776362       0.31989624740776795     
  0.31739914163813482       0.32515532110001927     
  0.31625313633165636       0.33188159954643576     
  0.31433682131291518       0.33804656993494908     
  0.31433682131316443       0.66195343006531804     
  0.31625313633174490       0.66811840045359394     
  0.31739914163811533       0.67484467889979893     
  0.31989624740587735       0.68010375259114164     
  0.32780779855581166       0.31220910854846001     
  0.32515532110011530       0.31739914163822897     
  0.32402408228490825       0.32402408228490809     
  0.32200092448334128       0.32989256901783498     
  0.32200092448334416       0.67010743098281222     
  0.32402408228496093       0.67597591771516152     
  0.32515532110015616       0.68260085836201023     
  0.32780779856490766       0.68779089146968853     
  0.33305751418480206       0.30988071255090849     
  0.33188159954655555       0.31625313633177043     
  0.32989256901777725       0.32200092448328560     
  0.32989256901703251       0.67799907551566485     
  0.33188159954639612       0.68374686366810744     
  0.33305751418468932       0.69011928744861295     
  0.34116803171854593       0.30260410823557071     
  0.33979382161862659       0.30854265471920672     
  0.33804656993494936       0.31433682131291540     
  0.33804656993449933       0.68566317868592297     
  0.33979382161856064       0.69145734528071623     
  0.34116803171867649       0.69739589176499972     
  0.34964582568545177       0.29546199333288070     
  0.34774655960898260       0.30087611540273240     
  0.34648823780678389       0.30688040533322125     
  0.34648823780708099       0.69311959466706097     
  0.34774655960899598       0.69912388459738151     
  0.34964582568571423       0.70453800666790123     
  0.35848658194154298       0.28846713242674449     
  0.35585749036955422       0.29344908489402782     
  0.35477742417850411       0.29977630984611148     
  0.35173750130655002       0.30482040296132684     
  0.35173750132208509       0.69517959708463617     
  0.35477742417852309       0.70022369015397334     
  0.35585749036930020       0.70655091510548784     
  0.35848658193388638       0.71153286756457135     
  0.36403319513693883       0.28667518571935224     
  0.36301829307463424       0.29265600198587249     
  0.36058399476248970       0.29770629961529371     
  0.36058399476285424       0.70229370038595551     
  0.36301829307460348       0.70734399801408154     
  0.36403319513678717       0.71332481427996319     
  0.37297362323787409       0.28007344523527899     
  0.37114559837925432       0.28521172722718430     
  0.36988696398014276       0.29073996146713194     
  0.36988696397937854       0.70926003853110431     
  0.37114559837929662       0.71478827277289514     
  0.37297362323787825       0.71992655476566392     
  0.37939218777183203       0.27829455250222057     
  0.37840928285676739       0.28427955252118098     
  0.37512632031107490       0.28913727445934206     
  0.37512632027032228       0.71086272540951134     
  0.37840928285637554       0.71572044747824759     
  0.37939218777157396       0.72170544749714061     
  0.38805787094262062       0.27216536983412348     
  0.38670513807315876       0.27732953332514110     
  0.38508248416717117       0.28244037982893888     
  0.38508248416687607       0.71755962017074992     
  0.38670513807320334       0.72267046667497525     
  0.38805787094189281       0.72783463016402183     
  0.39494456736461991       0.27054813577900905     
  0.39408528290545014       0.27626393969134044     
  0.39408528290588168       0.72373606030920856     
  0.39494456736451672       0.72945186422091013     
  0.40399647993401561       0.26469667799620966     
  0.40235883583505339       0.26954722044716645     
  0.40116780621181924       0.27463312018968417     
  0.40116780621130949       0.72536687980950521     
  0.40235883583503818       0.73045277955273213     
  0.40399647993430848       0.73530332200668125     
  0.41060563932551603       0.26340972250828359     
  0.40984925354311968       0.26890924108556113     
  0.40641858322243873       0.27350710344835738     
  0.40641858324012442       0.72649289666662153     
  0.40984925354344098       0.73109075891489317     
  0.41060563932548927       0.73659027749142514     
  0.42131100734095867       0.25762880781792918     
  0.41818717750282142       0.26209180407075816     
  0.41745648484230974       0.26748024071221554     
  0.41745648484244746       0.73251975928814772     
  0.41818717750310397       0.73790819592969170     
  0.42131100737856986       0.74237119223686865     
  0.42665985321270300       0.25679815477703904     
  0.42577140261019808       0.26170822141298850     
  0.42410842406843513       0.26634073257646163     
  0.42410842406844435       0.73365926742359955     
  0.42577140261010010       0.73829177858677464     
  0.42665985321341332       0.74320184522567856     
  0.43393649198217049       0.25576476517394386     
  0.43336890361821317       0.26102934646232528     
  0.43336890361841618       0.73897065353796776     
  0.43393649198297241       0.74423523482727127     
  0.44160712427634879       0.25479948324091550     
  0.44111546161857174       0.26000261467875491     
  0.44111546161814802       0.73999738532053638     
  0.44160712427645776       0.74520051675922139     
  0.45199350820625311       0.24978047026836706     
  0.44930306308112494       0.25403066389830764     
  0.44879092425068640       0.25911738174484333     
  0.44879092424952749       0.74088261825364132     
  0.44930306308177420       0.74596933610272764     
  0.45199350819789935       0.75021952971886108     
  0.45767857804802420       0.24927298139855239     
  0.45612125362873474       0.25839150142935363     
  0.45612125362738171       0.74160849856823974     
  0.45767857804720796       0.75072701860063196     
  0.46512090735313449       0.24870336057510659     
  0.46476341247557540       0.25375717636302392     
  0.46161634614982650       0.25791920234014332     
  0.46161634615635272       0.74208079767292234     
  0.46476341247535624       0.74624282363669325     
  0.46512090735426892       0.75129663942649261     
  0.47281212196687328       0.24823179080967978     
  0.47256891518011385       0.25327552532321007     
  0.47256891517994426       0.74672447467677483     
  0.47281212196790534       0.75176820919161069     
  0.48056088877953823       0.24787601726056421     
  0.48039849364102871       0.25289792741070305     
  0.48039849364088333       0.74710207258942407     
  0.48056088877893444       0.75212398273865855     
  0.48833082167438202       0.24763855638904103     
  0.48823521154477817       0.25264652563543522     
  0.48823521154390570       0.74735347436370470     
  0.48833082167490388       0.75236144361148971     
  0.49610946118921462       0.24751981568999162     
  0.49607766134714820       0.25252089519179877     
  0.49607766134720455       0.74747910480851609     
  0.49610946118906241       0.75248018430980734     
  0.50389053881084134       0.24751981569000631     
  0.50392233865301905       0.25252089519176868     
  0.50392233865290448       0.74747910480816515     
  0.50389053881078361       0.75248018430998798     
  0.51166917832547054       0.24763855638910234     
  0.51176478845546358       0.25264652563532064     
  0.51176478845477669       0.74735347436370381     
  0.51166917832575776       0.75236144361130020     
  0.51943911122063458       0.24787601726056432     
  0.51960150635916591       0.25289792741062439     
  0.51960150635927416       0.74710207258957639     
  0.51943911122027264       0.75212398273907910     
  0.52718787803259293       0.24823179080959734     
  0.52743108482013978       0.25327552532321029     
  0.52743108481994638       0.74672447467677416     
  0.52718787803356992       0.75176820919110765     
  0.53487909264631683       0.24870336057496212     
  0.53523658752453462       0.25375717636304429     
  0.53838365386791864       0.25791920234746146     
  0.53838365386032905       0.74208079767291235     
  0.53523658752415548       0.74624282363657568     
  0.53487909264792777       0.75129663942648839     
  0.54232142195129518       0.24927298139800549     
  0.54387874637170497       0.25839150142965966     
  0.54387874637008804       0.74160849856912769     
  0.54232142195155486       0.75072701860063729     
  0.54800649178927641       0.24978047026578448     
  0.55069693691906052       0.25403066389841561     
  0.55120907574932154       0.25911738174465904     
  0.55120907574828903       0.74088261825364177     
  0.55069693691927879       0.74596933610225857     
  0.54800649178017080       0.75021952971265771     
  0.55839287572351892       0.25479948324087776     
  0.55888453838158281       0.26000261467882724     
  0.55888453837996965       0.73999738531932036     
  0.55839287572407414       0.74520051675966514     
  0.56606350801829064       0.25576476517422458     
  0.56663109638163467       0.26102934646227677     
  0.56663109638210662       0.73897065353810409     
  0.56606350801753547       0.74423523482572540     
  0.57334014678741174       0.25679815477643431     
  0.57422859738981924       0.26170822141302891     
  0.57589157593124995       0.26634073257629065     
  0.57589157592792628       0.73365926741889442     
  0.57422859738968901       0.73829177858688588     
  0.57334014678857836       0.74320184522417498     
  0.57868899265893725       0.25762880782305253     
  0.58181282249737398       0.26209180407086796     
  0.58254351515760983       0.26748024071212417     
  0.58254351515761726       0.73251975928765622     
  0.58181282249772037       0.73790819592994250     
  0.57868899266467633       0.74237119219259462     
  0.58939436067403572       0.26340972250819245     
  0.59015074645673993       0.26890924108554881     
  0.59358141678293919       0.27350710341258200     
  0.59358141678273058       0.72649289653966664     
  0.59015074645679433       0.73109075891435837     
  0.58939436067419737       0.73659027749142492     
  0.59600352006643043       0.26469667799536817     
  0.59764116416494140       0.26954722044719681     
  0.59883219378809927       0.27463312018960029     
  0.59883219378715480       0.72536687980905468     
  0.59764116416494129       0.73045277955284316     
  0.59600352007053925       0.73530332200884285     
  0.60505543263546280       0.27054813577899567     
  0.60591471709444711       0.27626393969140256     
  0.60591471709550138       0.72373606030983528     
  0.60505543263546335       0.72945186422106534     
  0.61194212905806078       0.27216536983463790     
  0.61329486192685234       0.27732953332513038     
  0.61491751583283039       0.28244037982882841     
  0.61491751583166088       0.71755962016966301     
  0.61329486192685256       0.72267046667486612     
  0.61194212905729128       0.72783463016585892     
  0.62060781222798933       0.27829455250220625     
  0.62159071714345793       0.28427955252121112     
  0.62487367963482088       0.28913727445930842     
  0.62487367956674722       0.71086272540980522     
  0.62159071714276004       0.71572044747824703     
  0.62060781222811789       0.72170544749774568     
  0.62702637676387940       0.28007344523564220     
  0.62885440162066930       0.28521172722715182     
  0.63011303602040147       0.29073996146752973     
  0.63011303601940416       0.70926003853239361     
  0.62885440162081618       0.71478827277289514     
  0.62702637676197759       0.71992655476442302     
  0.63596680486258661       0.28667518571931294     
  0.63698170692569800       0.29265600198602065     
  0.63941600523805442       0.29770629961529782     
  0.63941600524000730       0.70229370038739547     
  0.63698170692500755       0.70734399801372827     
  0.63596680486223645       0.71332481427976735     
  0.64151341806374007       0.28846713242617633     
  0.64414250963023933       0.29344908489392429     
  0.64522257582157783       0.29977630984612796     
  0.64826249870877162       0.30482040296131419     
  0.64826249870892749       0.69517959705394727     
  0.64522257582100317       0.70022369015335229     
  0.64414250962995079       0.70655091510542700     
  0.64151341804874140       0.71153286756181311     
  0.65035417431454878       0.29546199333276912     
  0.65225344039097644       0.30087611540267473     
  0.65351176219290719       0.30688040533322219     
  0.65351176219223495       0.69311959466575801     
  0.65225344039097710       0.69912388459721775     
  0.65035417431628695       0.70453800666897681     
  0.65883196828226087       0.30260410823580125     
  0.66020617838135276       0.30854265471917081     
  0.66195343006549268       0.31433682131324825     
  0.66195343006549079       0.68566317868755500     
  0.66020617838155515       0.69145734528098113     
  0.65883196828238499       0.69739589176539918     
  0.66694248581499749       0.30988071255092597     
  0.66811840045354076       0.31625313633171948     
  0.67010743098235170       0.32200092448312229     
  0.67010743098326708       0.67799907551777283     
  0.66811840045375226       0.68374686366853898     
  0.66694248581508908       0.69011928744898976     
  0.67219220144691627       0.31220910855025313     
  0.67484467889980282       0.31739914163811778     
  0.67597591771516174       0.32402408228496088     
  0.67799907551566641       0.32989256901703379     
  0.67799907551776895       0.67010743098327630     
  0.67597591771543186       0.67597591771543286     
  0.67484467889947819       0.68260085836135709     
  0.67219220146197878       0.68779089146968742     
  0.68010375259517009       0.31989624740778483     
  0.68260085836192785       0.32515532110011514     
  0.68374686366832427       0.33188159954650254     
  0.68566317868556037       0.33804656993431997     
  0.68566317868901061       0.66195343006689700     
  0.68374686366853976       0.66811840045375193     
  0.68260085836168127       0.67484467889980138     
  0.68010375258311540       0.68010375258306333     
  0.68779089145432248       0.32780779855763131     
  0.69011928744889817       0.33305751418482760     
  0.69145734528071601       0.33979382161856087     
  0.69311959466741535       0.34648823780725974     
  0.69517959708456278       0.35173750132208259     
  0.69517959705374444       0.64826249870863861     
  0.69311959466717876       0.65351176219357709     
  0.69145734528087532       0.66020617838145346     
  0.69011928744917750       0.66694248581527160     
  0.68779089148496375       0.67219220147687897     
  0.69739589176566841       0.34116803171900051     
  0.69912388459732722       0.34774655960896905     
  0.70022369015421027       0.35477742417864566     
  0.70229370038164274       0.36058399476063574     
  0.70229370038307870       0.63941600523608844     
  0.70022369015350927       0.64522257582114573     
  0.69912388459743613       0.65225344039118160     
  0.69739589176566352       0.65883196828264279     
  0.70453800666656252       0.34964582568505015     
  0.70655091510580581       0.35585749036945941     
  0.70734399801384606       0.36301829307448136     
  0.70926003853142716       0.36988696397955012     
  0.71086272540973805       0.37512632027036219     
  0.71086272556433228       0.62487367970295438     
  0.70926003853078401       0.63011303601798230     
  0.70734399801384606       0.63698170692511413     
  0.70655091510555279       0.64414250963006670     
  0.70453800666629562       0.65035417431381903     
  0.71153286757565204       0.35848658193944805     
  0.71332481427917582       0.36403319513638716     
  0.71478827277267420       0.37114559837918359     
  0.71572044747839403       0.37840928285645381     
  0.71755962016802866       0.38508248416540475     
  0.71755962017020747       0.61491751583212750     
  0.71572044747839336       0.62159071714288561     
  0.71478827277278467       0.62885440162071837     
  0.71332481428154348       0.63596680486381241     
  0.71153286757012812       0.64151341805623352     
  0.71992655475944334       0.37297362323466421     
  0.72170544749774568       0.37939218777188843     
  0.72267046667486590       0.38670513807314388     
  0.72373606030858073       0.39408528290553807     
  0.72536687980950298       0.40116780621130271     
  0.72649289679371676       0.40641858331140840     
  0.72649289679358842       0.59358141699081202     
  0.72536687981178738       0.59883219378941877     
  0.72373606030889370       0.60591471709470912     
  0.72267046667475643       0.61329486192675986     
  0.72170544749804977       0.62060781222838202     
  0.71992655476193745       0.62702637675981321     
  0.72783463016173133       0.38805787094067351     
  0.72945186422153185       0.39494456736485078     
  0.73045277955284360       0.40235883583509868     
  0.73109075891449249       0.40984925354321433     
  0.73251975928716984       0.41745648484188841     
  0.73365926742170895       0.42410842406733668     
  0.73365926741888621       0.57589157592792262     
  0.73251975928790458       0.58254351515781011     
  0.73109075891435749       0.59015074645679577     
  0.73045277955295529       0.59764116416503288     
  0.72945186422059793       0.60505543263507811     
  0.72783463016586436       0.61194212905728496     
  0.73530332200812920       0.40399647993510007     
  0.73659027749163031       0.41060563932560079     
  0.73790819592994328       0.41818717750324463     
  0.73829177858677464       0.42577140261010005     
  0.73897065353796798       0.43336890361841440     
  0.73999738532074011       0.44111546161826803     
  0.74088261825399160       0.44879092424974160     
  0.74160849857176936       0.45612125362955108     
  0.74208079767289559       0.46161634615633834     
  0.74208079765192525       0.53838365384505060     
  0.74160849857088773       0.54387874637138611     
  0.74088261825399426       0.55120907574853939     
  0.73999738532053638       0.55888453838089258     
  0.73897065353769520       0.56663109638178988     
  0.73829177858688599       0.57422859738968879     
  0.73790819592956669       0.58181282249742350     
  0.73659027749203976       0.58939436067469453     
  0.73530332200523596       0.59600352006760648     
  0.74237119220734804       0.42131100736186916     
  0.74320184522167965       0.42665985321113103     
  0.74423523482528375       0.43393649198181894     
  0.74520051675936905       0.44160712427654619     
  0.74596933610202243       0.44930306308135354     
  0.74624282363681049       0.46476341247542913     
  0.74672447467650749       0.47256891517977462     
  0.74710207258942352       0.48039849364088449     
  0.74735347436386868       0.48823521154401534     
  0.74747910480834112       0.49607766134708775     
  0.74747910480834479       0.50392233865302405     
  0.74735347436337107       0.51176478845454498     
  0.74710207258957562       0.51960150635927294     
  0.74672447467677583       0.52743108481994727     
  0.74624282363692684       0.53523658752440872     
  0.74596933610249383       0.55069693691945143     
  0.74520051675936894       0.55839287572385177     
  0.74423523482528342       0.56606350801720218     
  0.74320184522517330       0.57334014678935052     
  0.74237119220730774       0.57868899267620866     
  0.75021952971267136       0.45199350819412859     
  0.75072701860328717       0.45767857804882078     
  0.75129663942509728       0.46512090735341138     
  0.75176820919059728       0.47281212196726741     
  0.75212398273865888       0.48056088877893111     
  0.75236144361111101       0.48833082167466052     
  0.75248018430980768       0.49610946118906024     
  0.75248018431016972       0.50389053881090506     
  0.75236144361091872       0.51166917832549874     
  0.75212398273929004       0.51943911122041531     
  0.75176820919059661       0.52718787803321332     
  0.75129663942649383       0.53487909264793299     
  0.75072701859864710       0.54232142195010558     
  0.75021952971266981       0.54800649178018801     
