 TITLE = "2D moments" 
 VARIABLES = "X", "Y" 
ZONE F="POINT", I=              8, J=1, K=1, SOLUTIONTIME=    0.000000000000000      STRANDID=         1
   6.2499999999999924E-002  0.27499999999999986     
  0.18749999999999981       0.27499999999999969     
  0.31249999999999989       0.27499999999999986     
  0.43749999999999917       0.27499999999999952     
  0.56249999999999933       0.27499999999999963     
  0.68750000000000100       0.27500000000000041     
  0.81249999999999856       0.27499999999999958     
  0.93750000000000133       0.27500000000000047     
