 VARIABLES="X","Y","U1","U2","F1","F2"
 zone i=          34  j=          34  f=point
 SOLUTIONTIME=  0.16250000000000003       STRANDID=          14
  -1.5625000000000000E-002  -1.5625000000000000E-002   2.0000000000000000        2.0000000000000000        1.0000000000000000        0.0000000000000000     
  -1.5625000000000000E-002   1.5625000000000000E-002   2.9978566579992503        2.9978566579992503        1.0000000000000000        0.0000000000000000     
  -1.5625000000000000E-002   4.6875000000000000E-002   2.9935702850125359        2.9935702850125359        1.0000000000000000        0.0000000000000000     
  -1.5625000000000000E-002   7.8125000000000000E-002   2.9892848129490628        2.9892848129490628        1.0000000000000000        0.0000000000000000     
  -1.5625000000000000E-002  0.10937500000000000        2.9850007326247714        2.9850007326247714        1.0000000000000000        0.0000000000000000     
  -1.5625000000000000E-002  0.14062500000000000        2.9807183895506677        2.9807183895506677        1.0000000000000000        0.0000000000000000     
  -1.5625000000000000E-002  0.17187500000000000        2.9764379473449933        2.9764379473449933        1.0000000000000000        0.0000000000000000     
  -1.5625000000000000E-002  0.20312500000000000        2.9721593657823244        2.9721593657823244        1.0000000000000000        0.0000000000000000     
  -1.5625000000000000E-002  0.23437500000000000        2.9678824051544326        2.9678824051544326        1.0000000000000000        0.0000000000000000     
  -1.5625000000000000E-002  0.26562500000000000        2.9636066562305596        2.9636066562305596        1.0000000000000000        0.0000000000000000     
  -1.5625000000000000E-002  0.29687500000000000        2.9601865979307020        2.9314673269861120       0.60000000000000031       0.39999999999999963     
  -1.5625000000000000E-002  0.32812500000000000        2.8357019945436899        2.8357019945436899        0.0000000000000000        1.0000000000000000     
  -1.5625000000000000E-002  0.35937500000000000        2.7030979849669579        2.7030979849669579        0.0000000000000000        1.0000000000000000     
  -1.5625000000000000E-002  0.39062500000000000        2.5788873468913938        2.5788873468913938        0.0000000000000000        1.0000000000000000     
  -1.5625000000000000E-002  0.42187500000000000        2.4663639193537503        2.4663639193537503        0.0000000000000000        1.0000000000000000     
  -1.5625000000000000E-002  0.45312500000000000        2.3676747303838681        2.3676747303838681        0.0000000000000000        1.0000000000000000     
  -1.5625000000000000E-002  0.48437500000000000        2.2837674032528796        2.2837674032528796        0.0000000000000000        1.0000000000000000     
  -1.5625000000000000E-002  0.51562500000000000        2.2145106304693281        2.2145106304693281        0.0000000000000000        1.0000000000000000     
  -1.5625000000000000E-002  0.54687500000000000        2.1589301520599551        2.1589301520599551        0.0000000000000000        1.0000000000000000     
  -1.5625000000000000E-002  0.57812500000000000        2.1154932894888145        2.1154932894888145        0.0000000000000000        1.0000000000000000     
  -1.5625000000000000E-002  0.60937500000000000        2.0823844695835474        2.0823844695835474        0.0000000000000000        1.0000000000000000     
  -1.5625000000000000E-002  0.64062500000000000        2.0577335763005618        2.0577335763005618        0.0000000000000000        1.0000000000000000     
  -1.5625000000000000E-002  0.67187500000000000        2.0397798819724438        2.0397798819724438        0.0000000000000000        1.0000000000000000     
  -1.5625000000000000E-002  0.70312500000000000        2.0269711347500703        2.0269711347500703        0.0000000000000000        1.0000000000000000     
  -1.5625000000000000E-002  0.73437500000000000        2.0180078958838568        2.0180078958838568        0.0000000000000000        1.0000000000000000     
  -1.5625000000000000E-002  0.76562500000000000        2.0118477339255896        2.0118477339255896        0.0000000000000000        1.0000000000000000     
  -1.5625000000000000E-002  0.79687500000000000        2.0076839916505187        2.0076839916505187        0.0000000000000000        1.0000000000000000     
  -1.5625000000000000E-002  0.82812500000000000        2.0049114251378484        2.0049114251378484        0.0000000000000000        1.0000000000000000     
  -1.5625000000000000E-002  0.85937500000000000        2.0030876381969058        2.0030876381969058        0.0000000000000000        1.0000000000000000     
  -1.5625000000000000E-002  0.89062500000000000        2.0018959306662572        2.0018959306662572        0.0000000000000000        1.0000000000000000     
  -1.5625000000000000E-002  0.92187500000000000        2.0011124693465940        2.0011124693465940        0.0000000000000000        1.0000000000000000     
  -1.5625000000000000E-002  0.95312500000000000        2.0005787301593831        2.0005787301593831        0.0000000000000000        1.0000000000000000     
  -1.5625000000000000E-002  0.98437500000000000        2.0001788901289621        2.0001788901289621        0.0000000000000000        1.0000000000000000     
  -1.5625000000000000E-002   1.0156250000000000        2.0000000000000000        2.0000000000000000        0.0000000000000000        1.0000000000000000     
   1.5625000000000000E-002  -1.5625000000000000E-002   3.0021433420007497        3.0021433420007497        1.0000000000000000        0.0000000000000000     
   1.5625000000000000E-002   1.5625000000000000E-002   2.9978566579992503        2.9978566579992503        1.0000000000000000        0.0000000000000000     
   1.5625000000000000E-002   4.6875000000000000E-002   2.9935702850125359        2.9935702850125359        1.0000000000000000        0.0000000000000000     
   1.5625000000000000E-002   7.8125000000000000E-002   2.9892848129490628        2.9892848129490628        1.0000000000000000        0.0000000000000000     
   1.5625000000000000E-002  0.10937500000000000        2.9850007326247714        2.9850007326247714        1.0000000000000000        0.0000000000000000     
   1.5625000000000000E-002  0.14062500000000000        2.9807183895506677        2.9807183895506677        1.0000000000000000        0.0000000000000000     
   1.5625000000000000E-002  0.17187500000000000        2.9764379473449933        2.9764379473449933        1.0000000000000000        0.0000000000000000     
   1.5625000000000000E-002  0.20312500000000000        2.9721593657823244        2.9721593657823244        1.0000000000000000        0.0000000000000000     
   1.5625000000000000E-002  0.23437500000000000        2.9678824051544326        2.9678824051544326        1.0000000000000000        0.0000000000000000     
   1.5625000000000000E-002  0.26562500000000000        2.9636066562305596        2.9636066562305596        1.0000000000000000        0.0000000000000000     
   1.5625000000000000E-002  0.29687500000000000        2.9601865979307020        2.9314673269861120       0.60000000000000031       0.39999999999999963     
   1.5625000000000000E-002  0.32812500000000000        2.8357019945436899        2.8357019945436899        0.0000000000000000        1.0000000000000000     
   1.5625000000000000E-002  0.35937500000000000        2.7030979849669579        2.7030979849669579        0.0000000000000000        1.0000000000000000     
   1.5625000000000000E-002  0.39062500000000000        2.5788873468913938        2.5788873468913938        0.0000000000000000        1.0000000000000000     
   1.5625000000000000E-002  0.42187500000000000        2.4663639193537503        2.4663639193537503        0.0000000000000000        1.0000000000000000     
   1.5625000000000000E-002  0.45312500000000000        2.3676747303838681        2.3676747303838681        0.0000000000000000        1.0000000000000000     
   1.5625000000000000E-002  0.48437500000000000        2.2837674032528796        2.2837674032528796        0.0000000000000000        1.0000000000000000     
   1.5625000000000000E-002  0.51562500000000000        2.2145106304693281        2.2145106304693281        0.0000000000000000        1.0000000000000000     
   1.5625000000000000E-002  0.54687500000000000        2.1589301520599551        2.1589301520599551        0.0000000000000000        1.0000000000000000     
   1.5625000000000000E-002  0.57812500000000000        2.1154932894888145        2.1154932894888145        0.0000000000000000        1.0000000000000000     
   1.5625000000000000E-002  0.60937500000000000        2.0823844695835474        2.0823844695835474        0.0000000000000000        1.0000000000000000     
   1.5625000000000000E-002  0.64062500000000000        2.0577335763005618        2.0577335763005618        0.0000000000000000        1.0000000000000000     
   1.5625000000000000E-002  0.67187500000000000        2.0397798819724438        2.0397798819724438        0.0000000000000000        1.0000000000000000     
   1.5625000000000000E-002  0.70312500000000000        2.0269711347500703        2.0269711347500703        0.0000000000000000        1.0000000000000000     
   1.5625000000000000E-002  0.73437500000000000        2.0180078958838568        2.0180078958838568        0.0000000000000000        1.0000000000000000     
   1.5625000000000000E-002  0.76562500000000000        2.0118477339255896        2.0118477339255896        0.0000000000000000        1.0000000000000000     
   1.5625000000000000E-002  0.79687500000000000        2.0076839916505187        2.0076839916505187        0.0000000000000000        1.0000000000000000     
   1.5625000000000000E-002  0.82812500000000000        2.0049114251378484        2.0049114251378484        0.0000000000000000        1.0000000000000000     
   1.5625000000000000E-002  0.85937500000000000        2.0030876381969058        2.0030876381969058        0.0000000000000000        1.0000000000000000     
   1.5625000000000000E-002  0.89062500000000000        2.0018959306662572        2.0018959306662572        0.0000000000000000        1.0000000000000000     
   1.5625000000000000E-002  0.92187500000000000        2.0011124693465940        2.0011124693465940        0.0000000000000000        1.0000000000000000     
   1.5625000000000000E-002  0.95312500000000000        2.0005787301593831        2.0005787301593831        0.0000000000000000        1.0000000000000000     
   1.5625000000000000E-002  0.98437500000000000        2.0001788901289621        2.0001788901289621        0.0000000000000000        1.0000000000000000     
   1.5625000000000000E-002   1.0156250000000000        1.9998211098710379        1.9998211098710379        0.0000000000000000        1.0000000000000000     
   4.6875000000000000E-002  -1.5625000000000000E-002   3.0021433420007497        3.0021433420007497        1.0000000000000000        0.0000000000000000     
   4.6875000000000000E-002   1.5625000000000000E-002   2.9978566579992503        2.9978566579992503        1.0000000000000000        0.0000000000000000     
   4.6875000000000000E-002   4.6875000000000000E-002   2.9935702850125359        2.9935702850125359        1.0000000000000000        0.0000000000000000     
   4.6875000000000000E-002   7.8125000000000000E-002   2.9892848129490628        2.9892848129490628        1.0000000000000000        0.0000000000000000     
   4.6875000000000000E-002  0.10937500000000000        2.9850007326247714        2.9850007326247714        1.0000000000000000        0.0000000000000000     
   4.6875000000000000E-002  0.14062500000000000        2.9807183895506677        2.9807183895506677        1.0000000000000000        0.0000000000000000     
   4.6875000000000000E-002  0.17187500000000000        2.9764379473449933        2.9764379473449933        1.0000000000000000        0.0000000000000000     
   4.6875000000000000E-002  0.20312500000000000        2.9721593657823244        2.9721593657823244        1.0000000000000000        0.0000000000000000     
   4.6875000000000000E-002  0.23437500000000000        2.9678824051544326        2.9678824051544326        1.0000000000000000        0.0000000000000000     
   4.6875000000000000E-002  0.26562500000000000        2.9636066562305592        2.9636066562305592        1.0000000000000000        0.0000000000000000     
   4.6875000000000000E-002  0.29687500000000000        2.9601865979307016        2.9314673269861125       0.60000000000000031       0.39999999999999963     
   4.6875000000000000E-002  0.32812500000000000        2.8357019945436899        2.8357019945436899        0.0000000000000000        1.0000000000000000     
   4.6875000000000000E-002  0.35937500000000000        2.7030979849669579        2.7030979849669579        0.0000000000000000        1.0000000000000000     
   4.6875000000000000E-002  0.39062500000000000        2.5788873468913938        2.5788873468913938        0.0000000000000000        1.0000000000000000     
   4.6875000000000000E-002  0.42187500000000000        2.4663639193537503        2.4663639193537503        0.0000000000000000        1.0000000000000000     
   4.6875000000000000E-002  0.45312500000000000        2.3676747303838681        2.3676747303838681        0.0000000000000000        1.0000000000000000     
   4.6875000000000000E-002  0.48437500000000000        2.2837674032528796        2.2837674032528796        0.0000000000000000        1.0000000000000000     
   4.6875000000000000E-002  0.51562500000000000        2.2145106304693281        2.2145106304693281        0.0000000000000000        1.0000000000000000     
   4.6875000000000000E-002  0.54687500000000000        2.1589301520599551        2.1589301520599551        0.0000000000000000        1.0000000000000000     
   4.6875000000000000E-002  0.57812500000000000        2.1154932894888145        2.1154932894888145        0.0000000000000000        1.0000000000000000     
   4.6875000000000000E-002  0.60937500000000000        2.0823844695835474        2.0823844695835474        0.0000000000000000        1.0000000000000000     
   4.6875000000000000E-002  0.64062500000000000        2.0577335763005618        2.0577335763005618        0.0000000000000000        1.0000000000000000     
   4.6875000000000000E-002  0.67187500000000000        2.0397798819724438        2.0397798819724438        0.0000000000000000        1.0000000000000000     
   4.6875000000000000E-002  0.70312500000000000        2.0269711347500703        2.0269711347500703        0.0000000000000000        1.0000000000000000     
   4.6875000000000000E-002  0.73437500000000000        2.0180078958838568        2.0180078958838568        0.0000000000000000        1.0000000000000000     
   4.6875000000000000E-002  0.76562500000000000        2.0118477339255896        2.0118477339255896        0.0000000000000000        1.0000000000000000     
   4.6875000000000000E-002  0.79687500000000000        2.0076839916505187        2.0076839916505187        0.0000000000000000        1.0000000000000000     
   4.6875000000000000E-002  0.82812500000000000        2.0049114251378484        2.0049114251378484        0.0000000000000000        1.0000000000000000     
   4.6875000000000000E-002  0.85937500000000000        2.0030876381969058        2.0030876381969058        0.0000000000000000        1.0000000000000000     
   4.6875000000000000E-002  0.89062500000000000        2.0018959306662572        2.0018959306662572        0.0000000000000000        1.0000000000000000     
   4.6875000000000000E-002  0.92187500000000000        2.0011124693465940        2.0011124693465940        0.0000000000000000        1.0000000000000000     
   4.6875000000000000E-002  0.95312500000000000        2.0005787301593831        2.0005787301593831        0.0000000000000000        1.0000000000000000     
   4.6875000000000000E-002  0.98437500000000000        2.0001788901289621        2.0001788901289621        0.0000000000000000        1.0000000000000000     
   4.6875000000000000E-002   1.0156250000000000        1.9998211098710379        1.9998211098710379        0.0000000000000000        1.0000000000000000     
   7.8125000000000000E-002  -1.5625000000000000E-002   3.0021433420007497        3.0021433420007497        1.0000000000000000        0.0000000000000000     
   7.8125000000000000E-002   1.5625000000000000E-002   2.9978566579992503        2.9978566579992503        1.0000000000000000        0.0000000000000000     
   7.8125000000000000E-002   4.6875000000000000E-002   2.9935702850125359        2.9935702850125359        1.0000000000000000        0.0000000000000000     
   7.8125000000000000E-002   7.8125000000000000E-002   2.9892848129490628        2.9892848129490628        1.0000000000000000        0.0000000000000000     
   7.8125000000000000E-002  0.10937500000000000        2.9850007326247714        2.9850007326247714        1.0000000000000000        0.0000000000000000     
   7.8125000000000000E-002  0.14062500000000000        2.9807183895506677        2.9807183895506677        1.0000000000000000        0.0000000000000000     
   7.8125000000000000E-002  0.17187500000000000        2.9764379473449933        2.9764379473449933        1.0000000000000000        0.0000000000000000     
   7.8125000000000000E-002  0.20312500000000000        2.9721593657823244        2.9721593657823244        1.0000000000000000        0.0000000000000000     
   7.8125000000000000E-002  0.23437500000000000        2.9678824051544326        2.9678824051544326        1.0000000000000000        0.0000000000000000     
   7.8125000000000000E-002  0.26562500000000000        2.9636066562305592        2.9636066562305592        1.0000000000000000        0.0000000000000000     
   7.8125000000000000E-002  0.29687500000000000        2.9601865979307012        2.9314673269861138       0.60000000000000031       0.39999999999999963     
   7.8125000000000000E-002  0.32812500000000000        2.8357019945436899        2.8357019945436899        0.0000000000000000        1.0000000000000000     
   7.8125000000000000E-002  0.35937500000000000        2.7030979849669579        2.7030979849669579        0.0000000000000000        1.0000000000000000     
   7.8125000000000000E-002  0.39062500000000000        2.5788873468913938        2.5788873468913938        0.0000000000000000        1.0000000000000000     
   7.8125000000000000E-002  0.42187500000000000        2.4663639193537503        2.4663639193537503        0.0000000000000000        1.0000000000000000     
   7.8125000000000000E-002  0.45312500000000000        2.3676747303838681        2.3676747303838681        0.0000000000000000        1.0000000000000000     
   7.8125000000000000E-002  0.48437500000000000        2.2837674032528796        2.2837674032528796        0.0000000000000000        1.0000000000000000     
   7.8125000000000000E-002  0.51562500000000000        2.2145106304693281        2.2145106304693281        0.0000000000000000        1.0000000000000000     
   7.8125000000000000E-002  0.54687500000000000        2.1589301520599551        2.1589301520599551        0.0000000000000000        1.0000000000000000     
   7.8125000000000000E-002  0.57812500000000000        2.1154932894888145        2.1154932894888145        0.0000000000000000        1.0000000000000000     
   7.8125000000000000E-002  0.60937500000000000        2.0823844695835474        2.0823844695835474        0.0000000000000000        1.0000000000000000     
   7.8125000000000000E-002  0.64062500000000000        2.0577335763005622        2.0577335763005622        0.0000000000000000        1.0000000000000000     
   7.8125000000000000E-002  0.67187500000000000        2.0397798819724438        2.0397798819724438        0.0000000000000000        1.0000000000000000     
   7.8125000000000000E-002  0.70312500000000000        2.0269711347500703        2.0269711347500703        0.0000000000000000        1.0000000000000000     
   7.8125000000000000E-002  0.73437500000000000        2.0180078958838568        2.0180078958838568        0.0000000000000000        1.0000000000000000     
   7.8125000000000000E-002  0.76562500000000000        2.0118477339255896        2.0118477339255896        0.0000000000000000        1.0000000000000000     
   7.8125000000000000E-002  0.79687500000000000        2.0076839916505187        2.0076839916505187        0.0000000000000000        1.0000000000000000     
   7.8125000000000000E-002  0.82812500000000000        2.0049114251378484        2.0049114251378484        0.0000000000000000        1.0000000000000000     
   7.8125000000000000E-002  0.85937500000000000        2.0030876381969058        2.0030876381969058        0.0000000000000000        1.0000000000000000     
   7.8125000000000000E-002  0.89062500000000000        2.0018959306662572        2.0018959306662572        0.0000000000000000        1.0000000000000000     
   7.8125000000000000E-002  0.92187500000000000        2.0011124693465940        2.0011124693465940        0.0000000000000000        1.0000000000000000     
   7.8125000000000000E-002  0.95312500000000000        2.0005787301593831        2.0005787301593831        0.0000000000000000        1.0000000000000000     
   7.8125000000000000E-002  0.98437500000000000        2.0001788901289621        2.0001788901289621        0.0000000000000000        1.0000000000000000     
   7.8125000000000000E-002   1.0156250000000000        1.9998211098710379        1.9998211098710379        0.0000000000000000        1.0000000000000000     
  0.10937500000000000       -1.5625000000000000E-002   3.0021433420007497        3.0021433420007497        1.0000000000000000        0.0000000000000000     
  0.10937500000000000        1.5625000000000000E-002   2.9978566579992503        2.9978566579992503        1.0000000000000000        0.0000000000000000     
  0.10937500000000000        4.6875000000000000E-002   2.9935702850125359        2.9935702850125359        1.0000000000000000        0.0000000000000000     
  0.10937500000000000        7.8125000000000000E-002   2.9892848129490628        2.9892848129490628        1.0000000000000000        0.0000000000000000     
  0.10937500000000000       0.10937500000000000        2.9850007326247714        2.9850007326247714        1.0000000000000000        0.0000000000000000     
  0.10937500000000000       0.14062500000000000        2.9807183895506677        2.9807183895506677        1.0000000000000000        0.0000000000000000     
  0.10937500000000000       0.17187500000000000        2.9764379473449933        2.9764379473449933        1.0000000000000000        0.0000000000000000     
  0.10937500000000000       0.20312500000000000        2.9721593657823244        2.9721593657823244        1.0000000000000000        0.0000000000000000     
  0.10937500000000000       0.23437500000000000        2.9678824051544326        2.9678824051544326        1.0000000000000000        0.0000000000000000     
  0.10937500000000000       0.26562500000000000        2.9636066562305592        2.9636066562305592        1.0000000000000000        0.0000000000000000     
  0.10937500000000000       0.29687500000000000        2.9601865979307016        2.9314673269861098       0.60000000000000031       0.39999999999999963     
  0.10937500000000000       0.32812500000000000        2.8357019945436903        2.8357019945436903        0.0000000000000000        1.0000000000000000     
  0.10937500000000000       0.35937500000000000        2.7030979849669583        2.7030979849669583        0.0000000000000000        1.0000000000000000     
  0.10937500000000000       0.39062500000000000        2.5788873468913938        2.5788873468913938        0.0000000000000000        1.0000000000000000     
  0.10937500000000000       0.42187500000000000        2.4663639193537503        2.4663639193537503        0.0000000000000000        1.0000000000000000     
  0.10937500000000000       0.45312500000000000        2.3676747303838681        2.3676747303838681        0.0000000000000000        1.0000000000000000     
  0.10937500000000000       0.48437500000000000        2.2837674032528796        2.2837674032528796        0.0000000000000000        1.0000000000000000     
  0.10937500000000000       0.51562500000000000        2.2145106304693281        2.2145106304693281        0.0000000000000000        1.0000000000000000     
  0.10937500000000000       0.54687500000000000        2.1589301520599551        2.1589301520599551        0.0000000000000000        1.0000000000000000     
  0.10937500000000000       0.57812500000000000        2.1154932894888150        2.1154932894888150        0.0000000000000000        1.0000000000000000     
  0.10937500000000000       0.60937500000000000        2.0823844695835474        2.0823844695835474        0.0000000000000000        1.0000000000000000     
  0.10937500000000000       0.64062500000000000        2.0577335763005622        2.0577335763005622        0.0000000000000000        1.0000000000000000     
  0.10937500000000000       0.67187500000000000        2.0397798819724438        2.0397798819724438        0.0000000000000000        1.0000000000000000     
  0.10937500000000000       0.70312500000000000        2.0269711347500703        2.0269711347500703        0.0000000000000000        1.0000000000000000     
  0.10937500000000000       0.73437500000000000        2.0180078958838568        2.0180078958838568        0.0000000000000000        1.0000000000000000     
  0.10937500000000000       0.76562500000000000        2.0118477339255896        2.0118477339255896        0.0000000000000000        1.0000000000000000     
  0.10937500000000000       0.79687500000000000        2.0076839916505187        2.0076839916505187        0.0000000000000000        1.0000000000000000     
  0.10937500000000000       0.82812500000000000        2.0049114251378484        2.0049114251378484        0.0000000000000000        1.0000000000000000     
  0.10937500000000000       0.85937500000000000        2.0030876381969058        2.0030876381969058        0.0000000000000000        1.0000000000000000     
  0.10937500000000000       0.89062500000000000        2.0018959306662576        2.0018959306662576        0.0000000000000000        1.0000000000000000     
  0.10937500000000000       0.92187500000000000        2.0011124693465940        2.0011124693465940        0.0000000000000000        1.0000000000000000     
  0.10937500000000000       0.95312500000000000        2.0005787301593831        2.0005787301593831        0.0000000000000000        1.0000000000000000     
  0.10937500000000000       0.98437500000000000        2.0001788901289621        2.0001788901289621        0.0000000000000000        1.0000000000000000     
  0.10937500000000000        1.0156250000000000        1.9998211098710379        1.9998211098710379        0.0000000000000000        1.0000000000000000     
  0.14062500000000000       -1.5625000000000000E-002   3.0021433420007497        3.0021433420007497        1.0000000000000000        0.0000000000000000     
  0.14062500000000000        1.5625000000000000E-002   2.9978566579992503        2.9978566579992503        1.0000000000000000        0.0000000000000000     
  0.14062500000000000        4.6875000000000000E-002   2.9935702850125359        2.9935702850125359        1.0000000000000000        0.0000000000000000     
  0.14062500000000000        7.8125000000000000E-002   2.9892848129490628        2.9892848129490628        1.0000000000000000        0.0000000000000000     
  0.14062500000000000       0.10937500000000000        2.9850007326247714        2.9850007326247714        1.0000000000000000        0.0000000000000000     
  0.14062500000000000       0.14062500000000000        2.9807183895506677        2.9807183895506677        1.0000000000000000        0.0000000000000000     
  0.14062500000000000       0.17187500000000000        2.9764379473449933        2.9764379473449933        1.0000000000000000        0.0000000000000000     
  0.14062500000000000       0.20312500000000000        2.9721593657823244        2.9721593657823244        1.0000000000000000        0.0000000000000000     
  0.14062500000000000       0.23437500000000000        2.9678824051544326        2.9678824051544326        1.0000000000000000        0.0000000000000000     
  0.14062500000000000       0.26562500000000000        2.9636066562305592        2.9636066562305592        1.0000000000000000        0.0000000000000000     
  0.14062500000000000       0.29687500000000000        2.9601865979307016        2.9314673269861098       0.60000000000000031       0.39999999999999963     
  0.14062500000000000       0.32812500000000000        2.8357019945436903        2.8357019945436903        0.0000000000000000        1.0000000000000000     
  0.14062500000000000       0.35937500000000000        2.7030979849669583        2.7030979849669583        0.0000000000000000        1.0000000000000000     
  0.14062500000000000       0.39062500000000000        2.5788873468913942        2.5788873468913942        0.0000000000000000        1.0000000000000000     
  0.14062500000000000       0.42187500000000000        2.4663639193537508        2.4663639193537508        0.0000000000000000        1.0000000000000000     
  0.14062500000000000       0.45312500000000000        2.3676747303838686        2.3676747303838686        0.0000000000000000        1.0000000000000000     
  0.14062500000000000       0.48437500000000000        2.2837674032528796        2.2837674032528796        0.0000000000000000        1.0000000000000000     
  0.14062500000000000       0.51562500000000000        2.2145106304693281        2.2145106304693281        0.0000000000000000        1.0000000000000000     
  0.14062500000000000       0.54687500000000000        2.1589301520599551        2.1589301520599551        0.0000000000000000        1.0000000000000000     
  0.14062500000000000       0.57812500000000000        2.1154932894888150        2.1154932894888150        0.0000000000000000        1.0000000000000000     