 VARIABLES="X","Y","U1","U2","F1","F2"
 zone i=          34  j=          34  f=point
 SOLUTIONTIME=  0.20000000000000001       STRANDID=          17
  -1.5625000000000000E-002  -1.5625000000000000E-002   2.0000000000000000        2.0000000000000000        1.0000000000000000        0.0000000000000000     
  -1.5625000000000000E-002   1.5625000000000000E-002   2.9978593651896168        2.9978593651896168        1.0000000000000000        0.0000000000000000     
  -1.5625000000000000E-002   4.6875000000000000E-002   2.9935781194407207        2.9935781194407207        1.0000000000000000        0.0000000000000000     
  -1.5625000000000000E-002   7.8125000000000000E-002   2.9892969436392844        2.9892969436392844        1.0000000000000000        0.0000000000000000     
  -1.5625000000000000E-002  0.10937500000000000        2.9850158729155369        2.9850158729155369        1.0000000000000000        0.0000000000000000     
  -1.5625000000000000E-002  0.14062500000000000        2.9807349335628119        2.9807349335628119        1.0000000000000000        0.0000000000000000     
  -1.5625000000000000E-002  0.17187500000000000        2.9764541403086993        2.9764541403086993        1.0000000000000000        0.0000000000000000     
  -1.5625000000000000E-002  0.20312500000000000        2.9721734901655270        2.9721734901655270        1.0000000000000000        0.0000000000000000     
  -1.5625000000000000E-002  0.23437500000000000        2.9678929628389068        2.9678929628389068        1.0000000000000000        0.0000000000000000     
  -1.5625000000000000E-002  0.26562500000000000        2.9636125274041833        2.9636125274041833        1.0000000000000000        0.0000000000000000     
  -1.5625000000000000E-002  0.29687500000000000        2.9601882217057622        2.9343338423085892       0.60000000000000031       0.39999999999999963     
  -1.5625000000000000E-002  0.32812500000000000        2.8485246001256423        2.8485246001256423        0.0000000000000000        1.0000000000000000     
  -1.5625000000000000E-002  0.35937500000000000        2.7289240640629528        2.7289240640629528        0.0000000000000000        1.0000000000000000     
  -1.5625000000000000E-002  0.39062500000000000        2.6153580554950846        2.6153580554950846        0.0000000000000000        1.0000000000000000     
  -1.5625000000000000E-002  0.42187500000000000        2.5103696578419998        2.5103696578419998        0.0000000000000000        1.0000000000000000     
  -1.5625000000000000E-002  0.45312500000000000        2.4158234897724395        2.4158234897724395        0.0000000000000000        1.0000000000000000     
  -1.5625000000000000E-002  0.48437500000000000        2.3328289433136700        2.3328289433136700        0.0000000000000000        1.0000000000000000     
  -1.5625000000000000E-002  0.51562500000000000        2.2617566342399318        2.2617566342399318        0.0000000000000000        1.0000000000000000     
  -1.5625000000000000E-002  0.54687500000000000        2.2023308186942216        2.2023308186942216        0.0000000000000000        1.0000000000000000     
  -1.5625000000000000E-002  0.57812500000000000        2.1537710032705233        2.1537710032705233        0.0000000000000000        1.0000000000000000     
  -1.5625000000000000E-002  0.60937500000000000        2.1149538243623125        2.1149538243623125        0.0000000000000000        1.0000000000000000     
  -1.5625000000000000E-002  0.64062500000000000        2.0845701274616975        2.0845701274616975        0.0000000000000000        1.0000000000000000     
  -1.5625000000000000E-002  0.67187500000000000        2.0612595348156320        2.0612595348156320        0.0000000000000000        1.0000000000000000     
  -1.5625000000000000E-002  0.70312500000000000        2.0437130763336171        2.0437130763336171        0.0000000000000000        1.0000000000000000     
  -1.5625000000000000E-002  0.73437500000000000        2.0307417368861058        2.0307417368861058        0.0000000000000000        1.0000000000000000     
  -1.5625000000000000E-002  0.76562500000000000        2.0213140009674260        2.0213140009674260        0.0000000000000000        1.0000000000000000     
  -1.5625000000000000E-002  0.79687500000000000        2.0145684199382088        2.0145684199382088        0.0000000000000000        1.0000000000000000     
  -1.5625000000000000E-002  0.82812500000000000        2.0098082033848348        2.0098082033848348        0.0000000000000000        1.0000000000000000     
  -1.5625000000000000E-002  0.85937500000000000        2.0064844190200870        2.0064844190200870        0.0000000000000000        1.0000000000000000     
  -1.5625000000000000E-002  0.89062500000000000        2.0041731769453128        2.0041731769453128        0.0000000000000000        1.0000000000000000     
  -1.5625000000000000E-002  0.92187500000000000        2.0025506669247854        2.0025506669247854        0.0000000000000000        1.0000000000000000     
  -1.5625000000000000E-002  0.95312500000000000        2.0013684487927437        2.0013684487927437        0.0000000000000000        1.0000000000000000     
  -1.5625000000000000E-002  0.98437500000000000        2.0004301569333327        2.0004301569333327        0.0000000000000000        1.0000000000000000     
  -1.5625000000000000E-002   1.0156250000000000        2.0000000000000000        2.0000000000000000        0.0000000000000000        1.0000000000000000     
   1.5625000000000000E-002  -1.5625000000000000E-002   3.0021406348103832        3.0021406348103832        1.0000000000000000        0.0000000000000000     
   1.5625000000000000E-002   1.5625000000000000E-002   2.9978593651896168        2.9978593651896168        1.0000000000000000        0.0000000000000000     
   1.5625000000000000E-002   4.6875000000000000E-002   2.9935781194407207        2.9935781194407207        1.0000000000000000        0.0000000000000000     
   1.5625000000000000E-002   7.8125000000000000E-002   2.9892969436392844        2.9892969436392844        1.0000000000000000        0.0000000000000000     
   1.5625000000000000E-002  0.10937500000000000        2.9850158729155369        2.9850158729155369        1.0000000000000000        0.0000000000000000     
   1.5625000000000000E-002  0.14062500000000000        2.9807349335628119        2.9807349335628119        1.0000000000000000        0.0000000000000000     
   1.5625000000000000E-002  0.17187500000000000        2.9764541403086993        2.9764541403086993        1.0000000000000000        0.0000000000000000     
   1.5625000000000000E-002  0.20312500000000000        2.9721734901655270        2.9721734901655270        1.0000000000000000        0.0000000000000000     
   1.5625000000000000E-002  0.23437500000000000        2.9678929628389068        2.9678929628389068        1.0000000000000000        0.0000000000000000     
   1.5625000000000000E-002  0.26562500000000000        2.9636125274041833        2.9636125274041833        1.0000000000000000        0.0000000000000000     
   1.5625000000000000E-002  0.29687500000000000        2.9601882217057622        2.9343338423085892       0.60000000000000031       0.39999999999999963     
   1.5625000000000000E-002  0.32812500000000000        2.8485246001256423        2.8485246001256423        0.0000000000000000        1.0000000000000000     
   1.5625000000000000E-002  0.35937500000000000        2.7289240640629528        2.7289240640629528        0.0000000000000000        1.0000000000000000     
   1.5625000000000000E-002  0.39062500000000000        2.6153580554950846        2.6153580554950846        0.0000000000000000        1.0000000000000000     
   1.5625000000000000E-002  0.42187500000000000        2.5103696578419998        2.5103696578419998        0.0000000000000000        1.0000000000000000     
   1.5625000000000000E-002  0.45312500000000000        2.4158234897724395        2.4158234897724395        0.0000000000000000        1.0000000000000000     
   1.5625000000000000E-002  0.48437500000000000        2.3328289433136700        2.3328289433136700        0.0000000000000000        1.0000000000000000     
   1.5625000000000000E-002  0.51562500000000000        2.2617566342399318        2.2617566342399318        0.0000000000000000        1.0000000000000000     
   1.5625000000000000E-002  0.54687500000000000        2.2023308186942216        2.2023308186942216        0.0000000000000000        1.0000000000000000     
   1.5625000000000000E-002  0.57812500000000000        2.1537710032705233        2.1537710032705233        0.0000000000000000        1.0000000000000000     
   1.5625000000000000E-002  0.60937500000000000        2.1149538243623125        2.1149538243623125        0.0000000000000000        1.0000000000000000     
   1.5625000000000000E-002  0.64062500000000000        2.0845701274616975        2.0845701274616975        0.0000000000000000        1.0000000000000000     
   1.5625000000000000E-002  0.67187500000000000        2.0612595348156320        2.0612595348156320        0.0000000000000000        1.0000000000000000     
   1.5625000000000000E-002  0.70312500000000000        2.0437130763336171        2.0437130763336171        0.0000000000000000        1.0000000000000000     
   1.5625000000000000E-002  0.73437500000000000        2.0307417368861058        2.0307417368861058        0.0000000000000000        1.0000000000000000     
   1.5625000000000000E-002  0.76562500000000000        2.0213140009674260        2.0213140009674260        0.0000000000000000        1.0000000000000000     
   1.5625000000000000E-002  0.79687500000000000        2.0145684199382088        2.0145684199382088        0.0000000000000000        1.0000000000000000     
   1.5625000000000000E-002  0.82812500000000000        2.0098082033848348        2.0098082033848348        0.0000000000000000        1.0000000000000000     
   1.5625000000000000E-002  0.85937500000000000        2.0064844190200870        2.0064844190200870        0.0000000000000000        1.0000000000000000     
   1.5625000000000000E-002  0.89062500000000000        2.0041731769453128        2.0041731769453128        0.0000000000000000        1.0000000000000000     
   1.5625000000000000E-002  0.92187500000000000        2.0025506669247854        2.0025506669247854        0.0000000000000000        1.0000000000000000     
   1.5625000000000000E-002  0.95312500000000000        2.0013684487927437        2.0013684487927437        0.0000000000000000        1.0000000000000000     
   1.5625000000000000E-002  0.98437500000000000        2.0004301569333327        2.0004301569333327        0.0000000000000000        1.0000000000000000     
   1.5625000000000000E-002   1.0156250000000000        1.9995698430666673        1.9995698430666673        0.0000000000000000        1.0000000000000000     
   4.6875000000000000E-002  -1.5625000000000000E-002   3.0021406348103832        3.0021406348103832        1.0000000000000000        0.0000000000000000     
   4.6875000000000000E-002   1.5625000000000000E-002   2.9978593651896168        2.9978593651896168        1.0000000000000000        0.0000000000000000     
   4.6875000000000000E-002   4.6875000000000000E-002   2.9935781194407207        2.9935781194407207        1.0000000000000000        0.0000000000000000     
   4.6875000000000000E-002   7.8125000000000000E-002   2.9892969436392844        2.9892969436392844        1.0000000000000000        0.0000000000000000     
   4.6875000000000000E-002  0.10937500000000000        2.9850158729155369        2.9850158729155369        1.0000000000000000        0.0000000000000000     
   4.6875000000000000E-002  0.14062500000000000        2.9807349335628119        2.9807349335628119        1.0000000000000000        0.0000000000000000     
   4.6875000000000000E-002  0.17187500000000000        2.9764541403086993        2.9764541403086993        1.0000000000000000        0.0000000000000000     
   4.6875000000000000E-002  0.20312500000000000        2.9721734901655270        2.9721734901655270        1.0000000000000000        0.0000000000000000     
   4.6875000000000000E-002  0.23437500000000000        2.9678929628389068        2.9678929628389068        1.0000000000000000        0.0000000000000000     
   4.6875000000000000E-002  0.26562500000000000        2.9636125274041833        2.9636125274041833        1.0000000000000000        0.0000000000000000     
   4.6875000000000000E-002  0.29687500000000000        2.9601882217057618        2.9343338423085896       0.60000000000000031       0.39999999999999963     
   4.6875000000000000E-002  0.32812500000000000        2.8485246001256423        2.8485246001256423        0.0000000000000000        1.0000000000000000     
   4.6875000000000000E-002  0.35937500000000000        2.7289240640629528        2.7289240640629528        0.0000000000000000        1.0000000000000000     
   4.6875000000000000E-002  0.39062500000000000        2.6153580554950846        2.6153580554950846        0.0000000000000000        1.0000000000000000     
   4.6875000000000000E-002  0.42187500000000000        2.5103696578419998        2.5103696578419998        0.0000000000000000        1.0000000000000000     
   4.6875000000000000E-002  0.45312500000000000        2.4158234897724395        2.4158234897724395        0.0000000000000000        1.0000000000000000     
   4.6875000000000000E-002  0.48437500000000000        2.3328289433136700        2.3328289433136700        0.0000000000000000        1.0000000000000000     
   4.6875000000000000E-002  0.51562500000000000        2.2617566342399318        2.2617566342399318        0.0000000000000000        1.0000000000000000     
   4.6875000000000000E-002  0.54687500000000000        2.2023308186942216        2.2023308186942216        0.0000000000000000        1.0000000000000000     
   4.6875000000000000E-002  0.57812500000000000        2.1537710032705233        2.1537710032705233        0.0000000000000000        1.0000000000000000     
   4.6875000000000000E-002  0.60937500000000000        2.1149538243623125        2.1149538243623125        0.0000000000000000        1.0000000000000000     
   4.6875000000000000E-002  0.64062500000000000        2.0845701274616975        2.0845701274616975        0.0000000000000000        1.0000000000000000     
   4.6875000000000000E-002  0.67187500000000000        2.0612595348156320        2.0612595348156320        0.0000000000000000        1.0000000000000000     
   4.6875000000000000E-002  0.70312500000000000        2.0437130763336171        2.0437130763336171        0.0000000000000000        1.0000000000000000     
   4.6875000000000000E-002  0.73437500000000000        2.0307417368861063        2.0307417368861063        0.0000000000000000        1.0000000000000000     
   4.6875000000000000E-002  0.76562500000000000        2.0213140009674260        2.0213140009674260        0.0000000000000000        1.0000000000000000     
   4.6875000000000000E-002  0.79687500000000000        2.0145684199382088        2.0145684199382088        0.0000000000000000        1.0000000000000000     
   4.6875000000000000E-002  0.82812500000000000        2.0098082033848348        2.0098082033848348        0.0000000000000000        1.0000000000000000     
   4.6875000000000000E-002  0.85937500000000000        2.0064844190200870        2.0064844190200870        0.0000000000000000        1.0000000000000000     
   4.6875000000000000E-002  0.89062500000000000        2.0041731769453128        2.0041731769453128        0.0000000000000000        1.0000000000000000     
   4.6875000000000000E-002  0.92187500000000000        2.0025506669247854        2.0025506669247854        0.0000000000000000        1.0000000000000000     
   4.6875000000000000E-002  0.95312500000000000        2.0013684487927437        2.0013684487927437        0.0000000000000000        1.0000000000000000     
   4.6875000000000000E-002  0.98437500000000000        2.0004301569333327        2.0004301569333327        0.0000000000000000        1.0000000000000000     
   4.6875000000000000E-002   1.0156250000000000        1.9995698430666673        1.9995698430666673        0.0000000000000000        1.0000000000000000     
   7.8125000000000000E-002  -1.5625000000000000E-002   3.0021406348103832        3.0021406348103832        1.0000000000000000        0.0000000000000000     
   7.8125000000000000E-002   1.5625000000000000E-002   2.9978593651896168        2.9978593651896168        1.0000000000000000        0.0000000000000000     
   7.8125000000000000E-002   4.6875000000000000E-002   2.9935781194407207        2.9935781194407207        1.0000000000000000        0.0000000000000000     
   7.8125000000000000E-002   7.8125000000000000E-002   2.9892969436392844        2.9892969436392844        1.0000000000000000        0.0000000000000000     
   7.8125000000000000E-002  0.10937500000000000        2.9850158729155369        2.9850158729155369        1.0000000000000000        0.0000000000000000     
   7.8125000000000000E-002  0.14062500000000000        2.9807349335628119        2.9807349335628119        1.0000000000000000        0.0000000000000000     
   7.8125000000000000E-002  0.17187500000000000        2.9764541403086993        2.9764541403086993        1.0000000000000000        0.0000000000000000     
   7.8125000000000000E-002  0.20312500000000000        2.9721734901655270        2.9721734901655270        1.0000000000000000        0.0000000000000000     
   7.8125000000000000E-002  0.23437500000000000        2.9678929628389068        2.9678929628389068        1.0000000000000000        0.0000000000000000     
   7.8125000000000000E-002  0.26562500000000000        2.9636125274041833        2.9636125274041833        1.0000000000000000        0.0000000000000000     
   7.8125000000000000E-002  0.29687500000000000        2.9601882217057618        2.9343338423085905       0.60000000000000031       0.39999999999999963     
   7.8125000000000000E-002  0.32812500000000000        2.8485246001256419        2.8485246001256419        0.0000000000000000        1.0000000000000000     
   7.8125000000000000E-002  0.35937500000000000        2.7289240640629528        2.7289240640629528        0.0000000000000000        1.0000000000000000     
   7.8125000000000000E-002  0.39062500000000000        2.6153580554950846        2.6153580554950846        0.0000000000000000        1.0000000000000000     
   7.8125000000000000E-002  0.42187500000000000        2.5103696578419998        2.5103696578419998        0.0000000000000000        1.0000000000000000     
   7.8125000000000000E-002  0.45312500000000000        2.4158234897724395        2.4158234897724395        0.0000000000000000        1.0000000000000000     
   7.8125000000000000E-002  0.48437500000000000        2.3328289433136700        2.3328289433136700        0.0000000000000000        1.0000000000000000     
   7.8125000000000000E-002  0.51562500000000000        2.2617566342399318        2.2617566342399318        0.0000000000000000        1.0000000000000000     
   7.8125000000000000E-002  0.54687500000000000        2.2023308186942216        2.2023308186942216        0.0000000000000000        1.0000000000000000     
   7.8125000000000000E-002  0.57812500000000000        2.1537710032705233        2.1537710032705233        0.0000000000000000        1.0000000000000000     
   7.8125000000000000E-002  0.60937500000000000        2.1149538243623125        2.1149538243623125        0.0000000000000000        1.0000000000000000     
   7.8125000000000000E-002  0.64062500000000000        2.0845701274616975        2.0845701274616975        0.0000000000000000        1.0000000000000000     
   7.8125000000000000E-002  0.67187500000000000        2.0612595348156320        2.0612595348156320        0.0000000000000000        1.0000000000000000     
   7.8125000000000000E-002  0.70312500000000000        2.0437130763336171        2.0437130763336171        0.0000000000000000        1.0000000000000000     
   7.8125000000000000E-002  0.73437500000000000        2.0307417368861058        2.0307417368861058        0.0000000000000000        1.0000000000000000     
   7.8125000000000000E-002  0.76562500000000000        2.0213140009674260        2.0213140009674260        0.0000000000000000        1.0000000000000000     
   7.8125000000000000E-002  0.79687500000000000        2.0145684199382092        2.0145684199382092        0.0000000000000000        1.0000000000000000     
   7.8125000000000000E-002  0.82812500000000000        2.0098082033848348        2.0098082033848348        0.0000000000000000        1.0000000000000000     
   7.8125000000000000E-002  0.85937500000000000        2.0064844190200870        2.0064844190200870        0.0000000000000000        1.0000000000000000     
   7.8125000000000000E-002  0.89062500000000000        2.0041731769453128        2.0041731769453128        0.0000000000000000        1.0000000000000000     
   7.8125000000000000E-002  0.92187500000000000        2.0025506669247854        2.0025506669247854        0.0000000000000000        1.0000000000000000     
   7.8125000000000000E-002  0.95312500000000000        2.0013684487927437        2.0013684487927437        0.0000000000000000        1.0000000000000000     
   7.8125000000000000E-002  0.98437500000000000        2.0004301569333327        2.0004301569333327        0.0000000000000000        1.0000000000000000     
   7.8125000000000000E-002   1.0156250000000000        1.9995698430666673        1.9995698430666673        0.0000000000000000        1.0000000000000000     
  0.10937500000000000       -1.5625000000000000E-002   3.0021406348103832        3.0021406348103832        1.0000000000000000        0.0000000000000000     
  0.10937500000000000        1.5625000000000000E-002   2.9978593651896168        2.9978593651896168        1.0000000000000000        0.0000000000000000     
  0.10937500000000000        4.6875000000000000E-002   2.9935781194407207        2.9935781194407207        1.0000000000000000        0.0000000000000000     
  0.10937500000000000        7.8125000000000000E-002   2.9892969436392844        2.9892969436392844        1.0000000000000000        0.0000000000000000     
  0.10937500000000000       0.10937500000000000        2.9850158729155369        2.9850158729155369        1.0000000000000000        0.0000000000000000     
  0.10937500000000000       0.14062500000000000        2.9807349335628119        2.9807349335628119        1.0000000000000000        0.0000000000000000     
  0.10937500000000000       0.17187500000000000        2.9764541403086993        2.9764541403086993        1.0000000000000000        0.0000000000000000     
  0.10937500000000000       0.20312500000000000        2.9721734901655270        2.9721734901655270        1.0000000000000000        0.0000000000000000     
  0.10937500000000000       0.23437500000000000        2.9678929628389068        2.9678929628389068        1.0000000000000000        0.0000000000000000     
  0.10937500000000000       0.26562500000000000        2.9636125274041833        2.9636125274041833        1.0000000000000000        0.0000000000000000     
  0.10937500000000000       0.29687500000000000        2.9601882217057618        2.9343338423085870       0.60000000000000031       0.39999999999999963     
  0.10937500000000000       0.32812500000000000        2.8485246001256423        2.8485246001256423        0.0000000000000000        1.0000000000000000     
  0.10937500000000000       0.35937500000000000        2.7289240640629528        2.7289240640629528        0.0000000000000000        1.0000000000000000     
  0.10937500000000000       0.39062500000000000        2.6153580554950846        2.6153580554950846        0.0000000000000000        1.0000000000000000     
  0.10937500000000000       0.42187500000000000        2.5103696578419998        2.5103696578419998        0.0000000000000000        1.0000000000000000     
  0.10937500000000000       0.45312500000000000        2.4158234897724395        2.4158234897724395        0.0000000000000000        1.0000000000000000     
  0.10937500000000000       0.48437500000000000        2.3328289433136700        2.3328289433136700        0.0000000000000000        1.0000000000000000     
  0.10937500000000000       0.51562500000000000        2.2617566342399318        2.2617566342399318        0.0000000000000000        1.0000000000000000     
  0.10937500000000000       0.54687500000000000        2.2023308186942216        2.2023308186942216        0.0000000000000000        1.0000000000000000     
  0.10937500000000000       0.57812500000000000        2.1537710032705233        2.1537710032705233        0.0000000000000000        1.0000000000000000     
  0.10937500000000000       0.60937500000000000        2.1149538243623125        2.1149538243623125        0.0000000000000000        1.0000000000000000     
  0.10937500000000000       0.64062500000000000        2.0845701274616975        2.0845701274616975        0.0000000000000000        1.0000000000000000     
  0.10937500000000000       0.67187500000000000        2.0612595348156320        2.0612595348156320        0.0000000000000000        1.0000000000000000     
  0.10937500000000000       0.70312500000000000        2.0437130763336171        2.0437130763336171        0.0000000000000000        1.0000000000000000     
  0.10937500000000000       0.73437500000000000        2.0307417368861063        2.0307417368861063        0.0000000000000000        1.0000000000000000     
  0.10937500000000000       0.76562500000000000        2.0213140009674260        2.0213140009674260        0.0000000000000000        1.0000000000000000     
  0.10937500000000000       0.79687500000000000        2.0145684199382092        2.0145684199382092        0.0000000000000000        1.0000000000000000     
  0.10937500000000000       0.82812500000000000        2.0098082033848348        2.0098082033848348        0.0000000000000000        1.0000000000000000     
  0.10937500000000000       0.85937500000000000        2.0064844190200870        2.0064844190200870        0.0000000000000000        1.0000000000000000     
  0.10937500000000000       0.89062500000000000        2.0041731769453128        2.0041731769453128        0.0000000000000000        1.0000000000000000     
  0.10937500000000000       0.92187500000000000        2.0025506669247854        2.0025506669247854        0.0000000000000000        1.0000000000000000     
  0.10937500000000000       0.95312500000000000        2.0013684487927437        2.0013684487927437        0.0000000000000000        1.0000000000000000     
  0.10937500000000000       0.98437500000000000        2.0004301569333327        2.0004301569333327        0.0000000000000000        1.0000000000000000     
  0.10937500000000000        1.0156250000000000        1.9995698430666673        1.9995698430666673        0.0000000000000000        1.0000000000000000     
  0.14062500000000000       -1.5625000000000000E-002   3.0021406348103832        3.0021406348103832        1.0000000000000000        0.0000000000000000     
  0.14062500000000000        1.5625000000000000E-002   2.9978593651896168        2.9978593651896168        1.0000000000000000        0.0000000000000000     
  0.14062500000000000        4.6875000000000000E-002   2.9935781194407207        2.9935781194407207        1.0000000000000000        0.0000000000000000     
  0.14062500000000000        7.8125000000000000E-002   2.9892969436392844        2.9892969436392844        1.0000000000000000        0.0000000000000000     
  0.14062500000000000       0.10937500000000000        2.9850158729155369        2.9850158729155369        1.0000000000000000        0.0000000000000000     
  0.14062500000000000       0.14062500000000000        2.9807349335628119        2.9807349335628119        1.0000000000000000        0.0000000000000000     
  0.14062500000000000       0.17187500000000000        2.9764541403086993        2.9764541403086993        1.0000000000000000        0.0000000000000000     
  0.14062500000000000       0.20312500000000000        2.9721734901655270        2.9721734901655270        1.0000000000000000        0.0000000000000000     
  0.14062500000000000       0.23437500000000000        2.9678929628389068        2.9678929628389068        1.0000000000000000        0.0000000000000000     
  0.14062500000000000       0.26562500000000000        2.9636125274041833        2.9636125274041833        1.0000000000000000        0.0000000000000000     
  0.14062500000000000       0.29687500000000000        2.9601882217057618        2.9343338423085870       0.60000000000000031       0.39999999999999963     
  0.14062500000000000       0.32812500000000000        2.8485246001256423        2.8485246001256423        0.0000000000000000        1.0000000000000000     
  0.14062500000000000       0.35937500000000000        2.7289240640629528        2.7289240640629528        0.0000000000000000        1.0000000000000000     
  0.14062500000000000       0.39062500000000000        2.6153580554950850        2.6153580554950850        0.0000000000000000        1.0000000000000000     
  0.14062500000000000       0.42187500000000000        2.5103696578419998        2.5103696578419998        0.0000000000000000        1.0000000000000000     
  0.14062500000000000       0.45312500000000000        2.4158234897724400        2.4158234897724400        0.0000000000000000        1.0000000000000000     
  0.14062500000000000       0.48437500000000000        2.3328289433136700        2.3328289433136700        0.0000000000000000        1.0000000000000000     
  0.14062500000000000       0.51562500000000000        2.2617566342399318        2.2617566342399318        0.0000000000000000        1.0000000000000000     
  0.14062500000000000       0.54687500000000000        2.2023308186942216        2.2023308186942216        0.0000000000000000        1.0000000000000000     
  0.14062500000000000       0.57812500000000000        2.1537710032705233        2.1537710032705233        0.0000000000000000        1.0000000000000000     