 VARIABLES="X","Y","U1","U2","F1","F2"
 zone i=          34  j=          34  f=point
 SOLUTIONTIME=  0.11250000000000000       STRANDID=          10
  -1.5625000000000000E-002  -1.5625000000000000E-002   2.0000000000000000        2.0000000000000000        1.0000000000000000        0.0000000000000000     
  -1.5625000000000000E-002   1.5625000000000000E-002   2.9977690341553007        2.9977690341553007        1.0000000000000000        0.0000000000000000     
  -1.5625000000000000E-002   4.6875000000000000E-002   2.9933167075610116        2.9933167075610116        1.0000000000000000        0.0000000000000000     
  -1.5625000000000000E-002   7.8125000000000000E-002   2.9888921782814948        2.9888921782814948        1.0000000000000000        0.0000000000000000     
  -1.5625000000000000E-002  0.10937500000000000        2.9845106864820430        2.9845106864820430        1.0000000000000000        0.0000000000000000     
  -1.5625000000000000E-002  0.14062500000000000        2.9801829096516204        2.9801829096516204        1.0000000000000000        0.0000000000000000     
  -1.5625000000000000E-002  0.17187500000000000        2.9759138302085231        2.9759138302085231        1.0000000000000000        0.0000000000000000     
  -1.5625000000000000E-002  0.20312500000000000        2.9717022025295519        2.9717022025295519        1.0000000000000000        0.0000000000000000     
  -1.5625000000000000E-002  0.23437500000000000        2.9675406852385082        2.9675406852385082        1.0000000000000000        0.0000000000000000     
  -1.5625000000000000E-002  0.26562500000000000        2.9634166244432381        2.9634166244432381        1.0000000000000000        0.0000000000000000     
  -1.5625000000000000E-002  0.29687500000000000        2.9601340413335926        2.9254025100656613       0.60000000000000031       0.39999999999999963     
  -1.5625000000000000E-002  0.32812500000000000        2.8086428510720287        2.8086428510720287        0.0000000000000000        1.0000000000000000     
  -1.5625000000000000E-002  0.35937500000000000        2.6497227469935782        2.6497227469935782        0.0000000000000000        1.0000000000000000     
  -1.5625000000000000E-002  0.39062500000000000        2.5059776506024773        2.5059776506024773        0.0000000000000000        1.0000000000000000     
  -1.5625000000000000E-002  0.42187500000000000        2.3822033660588420        2.3822033660588420        0.0000000000000000        1.0000000000000000     
  -1.5625000000000000E-002  0.45312500000000000        2.2803912140126141        2.2803912140126141        0.0000000000000000        1.0000000000000000     
  -1.5625000000000000E-002  0.48437500000000000        2.2000878965261084        2.2000878965261084        0.0000000000000000        1.0000000000000000     
  -1.5625000000000000E-002  0.51562500000000000        2.1391261495117480        2.1391261495117480        0.0000000000000000        1.0000000000000000     
  -1.5625000000000000E-002  0.54687500000000000        2.0944256789526614        2.0944256789526614        0.0000000000000000        1.0000000000000000     
  -1.5625000000000000E-002  0.57812500000000000        2.0626631000177871        2.0626631000177871        0.0000000000000000        1.0000000000000000     
  -1.5625000000000000E-002  0.60937500000000000        2.0407274284782524        2.0407274284782524        0.0000000000000000        1.0000000000000000     
  -1.5625000000000000E-002  0.64062500000000000        2.0259647355803709        2.0259647355803709        0.0000000000000000        1.0000000000000000     
  -1.5625000000000000E-002  0.67187500000000000        2.0162600471447027        2.0162600471447027        0.0000000000000000        1.0000000000000000     
  -1.5625000000000000E-002  0.70312500000000000        2.0100154143555637        2.0100154143555637        0.0000000000000000        1.0000000000000000     
  -1.5625000000000000E-002  0.73437500000000000        2.0060749284062096        2.0060749284062096        0.0000000000000000        1.0000000000000000     
  -1.5625000000000000E-002  0.76562500000000000        2.0036324156057703        2.0036324156057703        0.0000000000000000        1.0000000000000000     
  -1.5625000000000000E-002  0.79687500000000000        2.0021429068143952        2.0021429068143952        0.0000000000000000        1.0000000000000000     
  -1.5625000000000000E-002  0.82812500000000000        2.0012478259996747        2.0012478259996747        0.0000000000000000        1.0000000000000000     
  -1.5625000000000000E-002  0.85937500000000000        2.0007166851207598        2.0007166851207598        0.0000000000000000        1.0000000000000000     
  -1.5625000000000000E-002  0.89062500000000000        2.0004041879516810        2.0004041879516810        0.0000000000000000        1.0000000000000000     
  -1.5625000000000000E-002  0.92187500000000000        2.0002199881171996        2.0002199881171996        0.0000000000000000        1.0000000000000000     
  -1.5625000000000000E-002  0.95312500000000000        2.0001079863900952        2.0001079863900952        0.0000000000000000        1.0000000000000000     
  -1.5625000000000000E-002  0.98437500000000000        2.0000323208144648        2.0000323208144648        0.0000000000000000        1.0000000000000000     
  -1.5625000000000000E-002   1.0156250000000000        2.0000000000000000        2.0000000000000000        0.0000000000000000        1.0000000000000000     
   1.5625000000000000E-002  -1.5625000000000000E-002   3.0022309658446993        3.0022309658446993        1.0000000000000000        0.0000000000000000     
   1.5625000000000000E-002   1.5625000000000000E-002   2.9977690341553007        2.9977690341553007        1.0000000000000000        0.0000000000000000     
   1.5625000000000000E-002   4.6875000000000000E-002   2.9933167075610116        2.9933167075610116        1.0000000000000000        0.0000000000000000     
   1.5625000000000000E-002   7.8125000000000000E-002   2.9888921782814948        2.9888921782814948        1.0000000000000000        0.0000000000000000     
   1.5625000000000000E-002  0.10937500000000000        2.9845106864820430        2.9845106864820430        1.0000000000000000        0.0000000000000000     
   1.5625000000000000E-002  0.14062500000000000        2.9801829096516204        2.9801829096516204        1.0000000000000000        0.0000000000000000     
   1.5625000000000000E-002  0.17187500000000000        2.9759138302085231        2.9759138302085231        1.0000000000000000        0.0000000000000000     
   1.5625000000000000E-002  0.20312500000000000        2.9717022025295519        2.9717022025295519        1.0000000000000000        0.0000000000000000     
   1.5625000000000000E-002  0.23437500000000000        2.9675406852385082        2.9675406852385082        1.0000000000000000        0.0000000000000000     
   1.5625000000000000E-002  0.26562500000000000        2.9634166244432381        2.9634166244432381        1.0000000000000000        0.0000000000000000     
   1.5625000000000000E-002  0.29687500000000000        2.9601340413335926        2.9254025100656613       0.60000000000000031       0.39999999999999963     
   1.5625000000000000E-002  0.32812500000000000        2.8086428510720287        2.8086428510720287        0.0000000000000000        1.0000000000000000     
   1.5625000000000000E-002  0.35937500000000000        2.6497227469935782        2.6497227469935782        0.0000000000000000        1.0000000000000000     
   1.5625000000000000E-002  0.39062500000000000        2.5059776506024773        2.5059776506024773        0.0000000000000000        1.0000000000000000     
   1.5625000000000000E-002  0.42187500000000000        2.3822033660588420        2.3822033660588420        0.0000000000000000        1.0000000000000000     
   1.5625000000000000E-002  0.45312500000000000        2.2803912140126141        2.2803912140126141        0.0000000000000000        1.0000000000000000     
   1.5625000000000000E-002  0.48437500000000000        2.2000878965261084        2.2000878965261084        0.0000000000000000        1.0000000000000000     
   1.5625000000000000E-002  0.51562500000000000        2.1391261495117480        2.1391261495117480        0.0000000000000000        1.0000000000000000     
   1.5625000000000000E-002  0.54687500000000000        2.0944256789526614        2.0944256789526614        0.0000000000000000        1.0000000000000000     
   1.5625000000000000E-002  0.57812500000000000        2.0626631000177871        2.0626631000177871        0.0000000000000000        1.0000000000000000     
   1.5625000000000000E-002  0.60937500000000000        2.0407274284782524        2.0407274284782524        0.0000000000000000        1.0000000000000000     
   1.5625000000000000E-002  0.64062500000000000        2.0259647355803709        2.0259647355803709        0.0000000000000000        1.0000000000000000     
   1.5625000000000000E-002  0.67187500000000000        2.0162600471447027        2.0162600471447027        0.0000000000000000        1.0000000000000000     
   1.5625000000000000E-002  0.70312500000000000        2.0100154143555637        2.0100154143555637        0.0000000000000000        1.0000000000000000     
   1.5625000000000000E-002  0.73437500000000000        2.0060749284062096        2.0060749284062096        0.0000000000000000        1.0000000000000000     
   1.5625000000000000E-002  0.76562500000000000        2.0036324156057703        2.0036324156057703        0.0000000000000000        1.0000000000000000     
   1.5625000000000000E-002  0.79687500000000000        2.0021429068143952        2.0021429068143952        0.0000000000000000        1.0000000000000000     
   1.5625000000000000E-002  0.82812500000000000        2.0012478259996747        2.0012478259996747        0.0000000000000000        1.0000000000000000     
   1.5625000000000000E-002  0.85937500000000000        2.0007166851207598        2.0007166851207598        0.0000000000000000        1.0000000000000000     
   1.5625000000000000E-002  0.89062500000000000        2.0004041879516810        2.0004041879516810        0.0000000000000000        1.0000000000000000     
   1.5625000000000000E-002  0.92187500000000000        2.0002199881171996        2.0002199881171996        0.0000000000000000        1.0000000000000000     
   1.5625000000000000E-002  0.95312500000000000        2.0001079863900952        2.0001079863900952        0.0000000000000000        1.0000000000000000     
   1.5625000000000000E-002  0.98437500000000000        2.0000323208144648        2.0000323208144648        0.0000000000000000        1.0000000000000000     
   1.5625000000000000E-002   1.0156250000000000        1.9999676791855352        1.9999676791855352        0.0000000000000000        1.0000000000000000     
   4.6875000000000000E-002  -1.5625000000000000E-002   3.0022309658446993        3.0022309658446993        1.0000000000000000        0.0000000000000000     
   4.6875000000000000E-002   1.5625000000000000E-002   2.9977690341553007        2.9977690341553007        1.0000000000000000        0.0000000000000000     
   4.6875000000000000E-002   4.6875000000000000E-002   2.9933167075610116        2.9933167075610116        1.0000000000000000        0.0000000000000000     
   4.6875000000000000E-002   7.8125000000000000E-002   2.9888921782814948        2.9888921782814948        1.0000000000000000        0.0000000000000000     
   4.6875000000000000E-002  0.10937500000000000        2.9845106864820430        2.9845106864820430        1.0000000000000000        0.0000000000000000     
   4.6875000000000000E-002  0.14062500000000000        2.9801829096516204        2.9801829096516204        1.0000000000000000        0.0000000000000000     
   4.6875000000000000E-002  0.17187500000000000        2.9759138302085231        2.9759138302085231        1.0000000000000000        0.0000000000000000     
   4.6875000000000000E-002  0.20312500000000000        2.9717022025295519        2.9717022025295519        1.0000000000000000        0.0000000000000000     
   4.6875000000000000E-002  0.23437500000000000        2.9675406852385082        2.9675406852385082        1.0000000000000000        0.0000000000000000     
   4.6875000000000000E-002  0.26562500000000000        2.9634166244432381        2.9634166244432381        1.0000000000000000        0.0000000000000000     
   4.6875000000000000E-002  0.29687500000000000        2.9601340413335926        2.9254025100656627       0.60000000000000031       0.39999999999999963     
   4.6875000000000000E-002  0.32812500000000000        2.8086428510720287        2.8086428510720287        0.0000000000000000        1.0000000000000000     
   4.6875000000000000E-002  0.35937500000000000        2.6497227469935782        2.6497227469935782        0.0000000000000000        1.0000000000000000     
   4.6875000000000000E-002  0.39062500000000000        2.5059776506024773        2.5059776506024773        0.0000000000000000        1.0000000000000000     
   4.6875000000000000E-002  0.42187500000000000        2.3822033660588420        2.3822033660588420        0.0000000000000000        1.0000000000000000     
   4.6875000000000000E-002  0.45312500000000000        2.2803912140126141        2.2803912140126141        0.0000000000000000        1.0000000000000000     
   4.6875000000000000E-002  0.48437500000000000        2.2000878965261084        2.2000878965261084        0.0000000000000000        1.0000000000000000     
   4.6875000000000000E-002  0.51562500000000000        2.1391261495117480        2.1391261495117480        0.0000000000000000        1.0000000000000000     
   4.6875000000000000E-002  0.54687500000000000        2.0944256789526614        2.0944256789526614        0.0000000000000000        1.0000000000000000     
   4.6875000000000000E-002  0.57812500000000000        2.0626631000177871        2.0626631000177871        0.0000000000000000        1.0000000000000000     
   4.6875000000000000E-002  0.60937500000000000        2.0407274284782524        2.0407274284782524        0.0000000000000000        1.0000000000000000     
   4.6875000000000000E-002  0.64062500000000000        2.0259647355803709        2.0259647355803709        0.0000000000000000        1.0000000000000000     
   4.6875000000000000E-002  0.67187500000000000        2.0162600471447027        2.0162600471447027        0.0000000000000000        1.0000000000000000     
   4.6875000000000000E-002  0.70312500000000000        2.0100154143555637        2.0100154143555637        0.0000000000000000        1.0000000000000000     
   4.6875000000000000E-002  0.73437500000000000        2.0060749284062096        2.0060749284062096        0.0000000000000000        1.0000000000000000     
   4.6875000000000000E-002  0.76562500000000000        2.0036324156057703        2.0036324156057703        0.0000000000000000        1.0000000000000000     
   4.6875000000000000E-002  0.79687500000000000        2.0021429068143952        2.0021429068143952        0.0000000000000000        1.0000000000000000     
   4.6875000000000000E-002  0.82812500000000000        2.0012478259996747        2.0012478259996747        0.0000000000000000        1.0000000000000000     
   4.6875000000000000E-002  0.85937500000000000        2.0007166851207598        2.0007166851207598        0.0000000000000000        1.0000000000000000     
   4.6875000000000000E-002  0.89062500000000000        2.0004041879516810        2.0004041879516810        0.0000000000000000        1.0000000000000000     
   4.6875000000000000E-002  0.92187500000000000        2.0002199881171996        2.0002199881171996        0.0000000000000000        1.0000000000000000     
   4.6875000000000000E-002  0.95312500000000000        2.0001079863900952        2.0001079863900952        0.0000000000000000        1.0000000000000000     
   4.6875000000000000E-002  0.98437500000000000        2.0000323208144648        2.0000323208144648        0.0000000000000000        1.0000000000000000     
   4.6875000000000000E-002   1.0156250000000000        1.9999676791855352        1.9999676791855352        0.0000000000000000        1.0000000000000000     
   7.8125000000000000E-002  -1.5625000000000000E-002   3.0022309658446993        3.0022309658446993        1.0000000000000000        0.0000000000000000     
   7.8125000000000000E-002   1.5625000000000000E-002   2.9977690341553007        2.9977690341553007        1.0000000000000000        0.0000000000000000     
   7.8125000000000000E-002   4.6875000000000000E-002   2.9933167075610116        2.9933167075610116        1.0000000000000000        0.0000000000000000     
   7.8125000000000000E-002   7.8125000000000000E-002   2.9888921782814948        2.9888921782814948        1.0000000000000000        0.0000000000000000     
   7.8125000000000000E-002  0.10937500000000000        2.9845106864820430        2.9845106864820430        1.0000000000000000        0.0000000000000000     
   7.8125000000000000E-002  0.14062500000000000        2.9801829096516204        2.9801829096516204        1.0000000000000000        0.0000000000000000     
   7.8125000000000000E-002  0.17187500000000000        2.9759138302085226        2.9759138302085226        1.0000000000000000        0.0000000000000000     
   7.8125000000000000E-002  0.20312500000000000        2.9717022025295519        2.9717022025295519        1.0000000000000000        0.0000000000000000     
   7.8125000000000000E-002  0.23437500000000000        2.9675406852385082        2.9675406852385082        1.0000000000000000        0.0000000000000000     
   7.8125000000000000E-002  0.26562500000000000        2.9634166244432376        2.9634166244432376        1.0000000000000000        0.0000000000000000     
   7.8125000000000000E-002  0.29687500000000000        2.9601340413335921        2.9254025100656635       0.60000000000000031       0.39999999999999963     
   7.8125000000000000E-002  0.32812500000000000        2.8086428510720287        2.8086428510720287        0.0000000000000000        1.0000000000000000     
   7.8125000000000000E-002  0.35937500000000000        2.6497227469935782        2.6497227469935782        0.0000000000000000        1.0000000000000000     
   7.8125000000000000E-002  0.39062500000000000        2.5059776506024773        2.5059776506024773        0.0000000000000000        1.0000000000000000     
   7.8125000000000000E-002  0.42187500000000000        2.3822033660588420        2.3822033660588420        0.0000000000000000        1.0000000000000000     
   7.8125000000000000E-002  0.45312500000000000        2.2803912140126141        2.2803912140126141        0.0000000000000000        1.0000000000000000     
   7.8125000000000000E-002  0.48437500000000000        2.2000878965261084        2.2000878965261084        0.0000000000000000        1.0000000000000000     
   7.8125000000000000E-002  0.51562500000000000        2.1391261495117480        2.1391261495117480        0.0000000000000000        1.0000000000000000     
   7.8125000000000000E-002  0.54687500000000000        2.0944256789526614        2.0944256789526614        0.0000000000000000        1.0000000000000000     
   7.8125000000000000E-002  0.57812500000000000        2.0626631000177871        2.0626631000177871        0.0000000000000000        1.0000000000000000     
   7.8125000000000000E-002  0.60937500000000000        2.0407274284782524        2.0407274284782524        0.0000000000000000        1.0000000000000000     
   7.8125000000000000E-002  0.64062500000000000        2.0259647355803709        2.0259647355803709        0.0000000000000000        1.0000000000000000     
   7.8125000000000000E-002  0.67187500000000000        2.0162600471447027        2.0162600471447027        0.0000000000000000        1.0000000000000000     
   7.8125000000000000E-002  0.70312500000000000        2.0100154143555637        2.0100154143555637        0.0000000000000000        1.0000000000000000     
   7.8125000000000000E-002  0.73437500000000000        2.0060749284062096        2.0060749284062096        0.0000000000000000        1.0000000000000000     
   7.8125000000000000E-002  0.76562500000000000        2.0036324156057699        2.0036324156057699        0.0000000000000000        1.0000000000000000     
   7.8125000000000000E-002  0.79687500000000000        2.0021429068143952        2.0021429068143952        0.0000000000000000        1.0000000000000000     
   7.8125000000000000E-002  0.82812500000000000        2.0012478259996747        2.0012478259996747        0.0000000000000000        1.0000000000000000     
   7.8125000000000000E-002  0.85937500000000000        2.0007166851207598        2.0007166851207598        0.0000000000000000        1.0000000000000000     
   7.8125000000000000E-002  0.89062500000000000        2.0004041879516810        2.0004041879516810        0.0000000000000000        1.0000000000000000     
   7.8125000000000000E-002  0.92187500000000000        2.0002199881171996        2.0002199881171996        0.0000000000000000        1.0000000000000000     
   7.8125000000000000E-002  0.95312500000000000        2.0001079863900952        2.0001079863900952        0.0000000000000000        1.0000000000000000     
   7.8125000000000000E-002  0.98437500000000000        2.0000323208144648        2.0000323208144648        0.0000000000000000        1.0000000000000000     
   7.8125000000000000E-002   1.0156250000000000        1.9999676791855352        1.9999676791855352        0.0000000000000000        1.0000000000000000     
  0.10937500000000000       -1.5625000000000000E-002   3.0022309658446997        3.0022309658446997        1.0000000000000000        0.0000000000000000     
  0.10937500000000000        1.5625000000000000E-002   2.9977690341553003        2.9977690341553003        1.0000000000000000        0.0000000000000000     
  0.10937500000000000        4.6875000000000000E-002   2.9933167075610116        2.9933167075610116        1.0000000000000000        0.0000000000000000     
  0.10937500000000000        7.8125000000000000E-002   2.9888921782814948        2.9888921782814948        1.0000000000000000        0.0000000000000000     
  0.10937500000000000       0.10937500000000000        2.9845106864820430        2.9845106864820430        1.0000000000000000        0.0000000000000000     
  0.10937500000000000       0.14062500000000000        2.9801829096516204        2.9801829096516204        1.0000000000000000        0.0000000000000000     
  0.10937500000000000       0.17187500000000000        2.9759138302085231        2.9759138302085231        1.0000000000000000        0.0000000000000000     
  0.10937500000000000       0.20312500000000000        2.9717022025295519        2.9717022025295519        1.0000000000000000        0.0000000000000000     
  0.10937500000000000       0.23437500000000000        2.9675406852385082        2.9675406852385082        1.0000000000000000        0.0000000000000000     
  0.10937500000000000       0.26562500000000000        2.9634166244432381        2.9634166244432381        1.0000000000000000        0.0000000000000000     
  0.10937500000000000       0.29687500000000000        2.9601340413335926        2.9254025100656591       0.60000000000000031       0.39999999999999963     
  0.10937500000000000       0.32812500000000000        2.8086428510720292        2.8086428510720292        0.0000000000000000        1.0000000000000000     
  0.10937500000000000       0.35937500000000000        2.6497227469935782        2.6497227469935782        0.0000000000000000        1.0000000000000000     
  0.10937500000000000       0.39062500000000000        2.5059776506024773        2.5059776506024773        0.0000000000000000        1.0000000000000000     
  0.10937500000000000       0.42187500000000000        2.3822033660588420        2.3822033660588420        0.0000000000000000        1.0000000000000000     
  0.10937500000000000       0.45312500000000000        2.2803912140126141        2.2803912140126141        0.0000000000000000        1.0000000000000000     
  0.10937500000000000       0.48437500000000000        2.2000878965261084        2.2000878965261084        0.0000000000000000        1.0000000000000000     
  0.10937500000000000       0.51562500000000000        2.1391261495117480        2.1391261495117480        0.0000000000000000        1.0000000000000000     
  0.10937500000000000       0.54687500000000000        2.0944256789526614        2.0944256789526614        0.0000000000000000        1.0000000000000000     
  0.10937500000000000       0.57812500000000000        2.0626631000177871        2.0626631000177871        0.0000000000000000        1.0000000000000000     
  0.10937500000000000       0.60937500000000000        2.0407274284782528        2.0407274284782528        0.0000000000000000        1.0000000000000000     
  0.10937500000000000       0.64062500000000000        2.0259647355803709        2.0259647355803709        0.0000000000000000        1.0000000000000000     
  0.10937500000000000       0.67187500000000000        2.0162600471447027        2.0162600471447027        0.0000000000000000        1.0000000000000000     
  0.10937500000000000       0.70312500000000000        2.0100154143555637        2.0100154143555637        0.0000000000000000        1.0000000000000000     
  0.10937500000000000       0.73437500000000000        2.0060749284062096        2.0060749284062096        0.0000000000000000        1.0000000000000000     
  0.10937500000000000       0.76562500000000000        2.0036324156057699        2.0036324156057699        0.0000000000000000        1.0000000000000000     
  0.10937500000000000       0.79687500000000000        2.0021429068143952        2.0021429068143952        0.0000000000000000        1.0000000000000000     
  0.10937500000000000       0.82812500000000000        2.0012478259996747        2.0012478259996747        0.0000000000000000        1.0000000000000000     
  0.10937500000000000       0.85937500000000000        2.0007166851207598        2.0007166851207598        0.0000000000000000        1.0000000000000000     
  0.10937500000000000       0.89062500000000000        2.0004041879516810        2.0004041879516810        0.0000000000000000        1.0000000000000000     
  0.10937500000000000       0.92187500000000000        2.0002199881171996        2.0002199881171996        0.0000000000000000        1.0000000000000000     
  0.10937500000000000       0.95312500000000000        2.0001079863900952        2.0001079863900952        0.0000000000000000        1.0000000000000000     
  0.10937500000000000       0.98437500000000000        2.0000323208144648        2.0000323208144648        0.0000000000000000        1.0000000000000000     
  0.10937500000000000        1.0156250000000000        1.9999676791855352        1.9999676791855352        0.0000000000000000        1.0000000000000000     
  0.14062500000000000       -1.5625000000000000E-002   3.0022309658446997        3.0022309658446997        1.0000000000000000        0.0000000000000000     
  0.14062500000000000        1.5625000000000000E-002   2.9977690341553003        2.9977690341553003        1.0000000000000000        0.0000000000000000     
  0.14062500000000000        4.6875000000000000E-002   2.9933167075610116        2.9933167075610116        1.0000000000000000        0.0000000000000000     
  0.14062500000000000        7.8125000000000000E-002   2.9888921782814948        2.9888921782814948        1.0000000000000000        0.0000000000000000     
  0.14062500000000000       0.10937500000000000        2.9845106864820430        2.9845106864820430        1.0000000000000000        0.0000000000000000     
  0.14062500000000000       0.14062500000000000        2.9801829096516204        2.9801829096516204        1.0000000000000000        0.0000000000000000     
  0.14062500000000000       0.17187500000000000        2.9759138302085231        2.9759138302085231        1.0000000000000000        0.0000000000000000     
  0.14062500000000000       0.20312500000000000        2.9717022025295519        2.9717022025295519        1.0000000000000000        0.0000000000000000     
  0.14062500000000000       0.23437500000000000        2.9675406852385082        2.9675406852385082        1.0000000000000000        0.0000000000000000     
  0.14062500000000000       0.26562500000000000        2.9634166244432381        2.9634166244432381        1.0000000000000000        0.0000000000000000     
  0.14062500000000000       0.29687500000000000        2.9601340413335926        2.9254025100656591       0.60000000000000031       0.39999999999999963     
  0.14062500000000000       0.32812500000000000        2.8086428510720292        2.8086428510720292        0.0000000000000000        1.0000000000000000     
  0.14062500000000000       0.35937500000000000        2.6497227469935787        2.6497227469935787        0.0000000000000000        1.0000000000000000     
  0.14062500000000000       0.39062500000000000        2.5059776506024773        2.5059776506024773        0.0000000000000000        1.0000000000000000     
  0.14062500000000000       0.42187500000000000        2.3822033660588424        2.3822033660588424        0.0000000000000000        1.0000000000000000     
  0.14062500000000000       0.45312500000000000        2.2803912140126146        2.2803912140126146        0.0000000000000000        1.0000000000000000     
  0.14062500000000000       0.48437500000000000        2.2000878965261084        2.2000878965261084        0.0000000000000000        1.0000000000000000     
  0.14062500000000000       0.51562500000000000        2.1391261495117480        2.1391261495117480        0.0000000000000000        1.0000000000000000     
  0.14062500000000000       0.54687500000000000        2.0944256789526614        2.0944256789526614        0.0000000000000000        1.0000000000000000     
  0.14062500000000000       0.57812500000000000        2.0626631000177871        2.0626631000177871        0.0000000000000000        1.0000000000000000     