 VARIABLES="X","Y","U1","U2","F1","F2"
 zone i=          34  j=          34  f=point
 SOLUTIONTIME=   7.4999999999999997E-002  STRANDID=           7
  -1.5625000000000000E-002  -1.5625000000000000E-002   2.0000000000000000        2.0000000000000000        1.0000000000000000        0.0000000000000000     
  -1.5625000000000000E-002   1.5625000000000000E-002   2.9966727330924687        2.9966727330924687        1.0000000000000000        0.0000000000000000     
  -1.5625000000000000E-002   4.6875000000000000E-002   2.9901441547363237        2.9901441547363237        1.0000000000000000        0.0000000000000000     
  -1.5625000000000000E-002   7.8125000000000000E-002   2.9839800321966554        2.9839800321966554        1.0000000000000000        0.0000000000000000     
  -1.5625000000000000E-002  0.10937500000000000        2.9783800951199697        2.9783800951199697        1.0000000000000000        0.0000000000000000     
  -1.5625000000000000E-002  0.14062500000000000        2.9734841521029773        2.9734841521029773        1.0000000000000000        0.0000000000000000     
  -1.5625000000000000E-002  0.17187500000000000        2.9693573458668365        2.9693573458668365        1.0000000000000000        0.0000000000000000     
  -1.5625000000000000E-002  0.20312500000000000        2.9659833093777817        2.9659833093777817        1.0000000000000000        0.0000000000000000     
  -1.5625000000000000E-002  0.23437500000000000        2.9632659072915981        2.9632659072915981        1.0000000000000000        0.0000000000000000     
  -1.5625000000000000E-002  0.26562500000000000        2.9610393816798370        2.9610393816798370        1.0000000000000000        0.0000000000000000     
  -1.5625000000000000E-002  0.29687500000000000        2.9594765718144651        2.9167558864348067       0.60000000000000031       0.39999999999999963     
  -1.5625000000000000E-002  0.32812500000000000        2.7702868953438484        2.7702868953438484        0.0000000000000000        1.0000000000000000     
  -1.5625000000000000E-002  0.35937500000000000        2.5775600174655815        2.5775600174655815        0.0000000000000000        1.0000000000000000     
  -1.5625000000000000E-002  0.39062500000000000        2.4141114495818639        2.4141114495818639        0.0000000000000000        1.0000000000000000     
  -1.5625000000000000E-002  0.42187500000000000        2.2850753839839975        2.2850753839839975        0.0000000000000000        1.0000000000000000     
  -1.5625000000000000E-002  0.45312500000000000        2.1892254201908079        2.1892254201908079        0.0000000000000000        1.0000000000000000     
  -1.5625000000000000E-002  0.48437500000000000        2.1216032660116131        2.1216032660116131        0.0000000000000000        1.0000000000000000     
  -1.5625000000000000E-002  0.51562500000000000        2.0759377212131951        2.0759377212131951        0.0000000000000000        1.0000000000000000     
  -1.5625000000000000E-002  0.54687500000000000        2.0462303061489990        2.0462303061489990        0.0000000000000000        1.0000000000000000     
  -1.5625000000000000E-002  0.57812500000000000        2.0275156183577847        2.0275156183577847        0.0000000000000000        1.0000000000000000     
  -1.5625000000000000E-002  0.60937500000000000        2.0160500163921462        2.0160500163921462        0.0000000000000000        1.0000000000000000     
  -1.5625000000000000E-002  0.64062500000000000        2.0091945597748868        2.0091945597748868        0.0000000000000000        1.0000000000000000     
  -1.5625000000000000E-002  0.67187500000000000        2.0051824722582055        2.0051824722582055        0.0000000000000000        1.0000000000000000     
  -1.5625000000000000E-002  0.70312500000000000        2.0028785848319290        2.0028785848319290        0.0000000000000000        1.0000000000000000     
  -1.5625000000000000E-002  0.73437500000000000        2.0015777987274439        2.0015777987274439        0.0000000000000000        1.0000000000000000     
  -1.5625000000000000E-002  0.76562500000000000        2.0008544133589292        2.0008544133589292        0.0000000000000000        1.0000000000000000     
  -1.5625000000000000E-002  0.79687500000000000        2.0004575699249920        2.0004575699249920        0.0000000000000000        1.0000000000000000     
  -1.5625000000000000E-002  0.82812500000000000        2.0002425041909970        2.0002425041909970        0.0000000000000000        1.0000000000000000     
  -1.5625000000000000E-002  0.85937500000000000        2.0001271787114763        2.0001271787114763        0.0000000000000000        1.0000000000000000     
  -1.5625000000000000E-002  0.89062500000000000        2.0000658139207816        2.0000658139207816        0.0000000000000000        1.0000000000000000     
  -1.5625000000000000E-002  0.92187500000000000        2.0000331560846272        2.0000331560846272        0.0000000000000000        1.0000000000000000     
  -1.5625000000000000E-002  0.95312500000000000        2.0000153080678782        2.0000153080678782        0.0000000000000000        1.0000000000000000     
  -1.5625000000000000E-002  0.98437500000000000        2.0000044248878139        2.0000044248878139        0.0000000000000000        1.0000000000000000     
  -1.5625000000000000E-002   1.0156250000000000        2.0000000000000000        2.0000000000000000        0.0000000000000000        1.0000000000000000     
   1.5625000000000000E-002  -1.5625000000000000E-002   3.0033272669075313        3.0033272669075313        1.0000000000000000        0.0000000000000000     
   1.5625000000000000E-002   1.5625000000000000E-002   2.9966727330924687        2.9966727330924687        1.0000000000000000        0.0000000000000000     
   1.5625000000000000E-002   4.6875000000000000E-002   2.9901441547363237        2.9901441547363237        1.0000000000000000        0.0000000000000000     
   1.5625000000000000E-002   7.8125000000000000E-002   2.9839800321966554        2.9839800321966554        1.0000000000000000        0.0000000000000000     
   1.5625000000000000E-002  0.10937500000000000        2.9783800951199697        2.9783800951199697        1.0000000000000000        0.0000000000000000     
   1.5625000000000000E-002  0.14062500000000000        2.9734841521029773        2.9734841521029773        1.0000000000000000        0.0000000000000000     
   1.5625000000000000E-002  0.17187500000000000        2.9693573458668365        2.9693573458668365        1.0000000000000000        0.0000000000000000     
   1.5625000000000000E-002  0.20312500000000000        2.9659833093777817        2.9659833093777817        1.0000000000000000        0.0000000000000000     
   1.5625000000000000E-002  0.23437500000000000        2.9632659072915981        2.9632659072915981        1.0000000000000000        0.0000000000000000     
   1.5625000000000000E-002  0.26562500000000000        2.9610393816798370        2.9610393816798370        1.0000000000000000        0.0000000000000000     
   1.5625000000000000E-002  0.29687500000000000        2.9594765718144651        2.9167558864348067       0.60000000000000031       0.39999999999999963     
   1.5625000000000000E-002  0.32812500000000000        2.7702868953438484        2.7702868953438484        0.0000000000000000        1.0000000000000000     
   1.5625000000000000E-002  0.35937500000000000        2.5775600174655815        2.5775600174655815        0.0000000000000000        1.0000000000000000     
   1.5625000000000000E-002  0.39062500000000000        2.4141114495818639        2.4141114495818639        0.0000000000000000        1.0000000000000000     
   1.5625000000000000E-002  0.42187500000000000        2.2850753839839975        2.2850753839839975        0.0000000000000000        1.0000000000000000     
   1.5625000000000000E-002  0.45312500000000000        2.1892254201908079        2.1892254201908079        0.0000000000000000        1.0000000000000000     
   1.5625000000000000E-002  0.48437500000000000        2.1216032660116131        2.1216032660116131        0.0000000000000000        1.0000000000000000     
   1.5625000000000000E-002  0.51562500000000000        2.0759377212131951        2.0759377212131951        0.0000000000000000        1.0000000000000000     
   1.5625000000000000E-002  0.54687500000000000        2.0462303061489990        2.0462303061489990        0.0000000000000000        1.0000000000000000     
   1.5625000000000000E-002  0.57812500000000000        2.0275156183577847        2.0275156183577847        0.0000000000000000        1.0000000000000000     
   1.5625000000000000E-002  0.60937500000000000        2.0160500163921462        2.0160500163921462        0.0000000000000000        1.0000000000000000     
   1.5625000000000000E-002  0.64062500000000000        2.0091945597748868        2.0091945597748868        0.0000000000000000        1.0000000000000000     
   1.5625000000000000E-002  0.67187500000000000        2.0051824722582055        2.0051824722582055        0.0000000000000000        1.0000000000000000     
   1.5625000000000000E-002  0.70312500000000000        2.0028785848319290        2.0028785848319290        0.0000000000000000        1.0000000000000000     
   1.5625000000000000E-002  0.73437500000000000        2.0015777987274439        2.0015777987274439        0.0000000000000000        1.0000000000000000     
   1.5625000000000000E-002  0.76562500000000000        2.0008544133589292        2.0008544133589292        0.0000000000000000        1.0000000000000000     
   1.5625000000000000E-002  0.79687500000000000        2.0004575699249920        2.0004575699249920        0.0000000000000000        1.0000000000000000     
   1.5625000000000000E-002  0.82812500000000000        2.0002425041909970        2.0002425041909970        0.0000000000000000        1.0000000000000000     
   1.5625000000000000E-002  0.85937500000000000        2.0001271787114763        2.0001271787114763        0.0000000000000000        1.0000000000000000     
   1.5625000000000000E-002  0.89062500000000000        2.0000658139207816        2.0000658139207816        0.0000000000000000        1.0000000000000000     
   1.5625000000000000E-002  0.92187500000000000        2.0000331560846272        2.0000331560846272        0.0000000000000000        1.0000000000000000     
   1.5625000000000000E-002  0.95312500000000000        2.0000153080678782        2.0000153080678782        0.0000000000000000        1.0000000000000000     
   1.5625000000000000E-002  0.98437500000000000        2.0000044248878139        2.0000044248878139        0.0000000000000000        1.0000000000000000     
   1.5625000000000000E-002   1.0156250000000000        1.9999955751121861        1.9999955751121861        0.0000000000000000        1.0000000000000000     
   4.6875000000000000E-002  -1.5625000000000000E-002   3.0033272669075313        3.0033272669075313        1.0000000000000000        0.0000000000000000     
   4.6875000000000000E-002   1.5625000000000000E-002   2.9966727330924687        2.9966727330924687        1.0000000000000000        0.0000000000000000     
   4.6875000000000000E-002   4.6875000000000000E-002   2.9901441547363237        2.9901441547363237        1.0000000000000000        0.0000000000000000     
   4.6875000000000000E-002   7.8125000000000000E-002   2.9839800321966554        2.9839800321966554        1.0000000000000000        0.0000000000000000     
   4.6875000000000000E-002  0.10937500000000000        2.9783800951199697        2.9783800951199697        1.0000000000000000        0.0000000000000000     
   4.6875000000000000E-002  0.14062500000000000        2.9734841521029773        2.9734841521029773        1.0000000000000000        0.0000000000000000     
   4.6875000000000000E-002  0.17187500000000000        2.9693573458668365        2.9693573458668365        1.0000000000000000        0.0000000000000000     
   4.6875000000000000E-002  0.20312500000000000        2.9659833093777817        2.9659833093777817        1.0000000000000000        0.0000000000000000     
   4.6875000000000000E-002  0.23437500000000000        2.9632659072915981        2.9632659072915981        1.0000000000000000        0.0000000000000000     
   4.6875000000000000E-002  0.26562500000000000        2.9610393816798370        2.9610393816798370        1.0000000000000000        0.0000000000000000     
   4.6875000000000000E-002  0.29687500000000000        2.9594765718144651        2.9167558864348075       0.60000000000000031       0.39999999999999963     
   4.6875000000000000E-002  0.32812500000000000        2.7702868953438484        2.7702868953438484        0.0000000000000000        1.0000000000000000     
   4.6875000000000000E-002  0.35937500000000000        2.5775600174655815        2.5775600174655815        0.0000000000000000        1.0000000000000000     
   4.6875000000000000E-002  0.39062500000000000        2.4141114495818639        2.4141114495818639        0.0000000000000000        1.0000000000000000     
   4.6875000000000000E-002  0.42187500000000000        2.2850753839839975        2.2850753839839975        0.0000000000000000        1.0000000000000000     
   4.6875000000000000E-002  0.45312500000000000        2.1892254201908079        2.1892254201908079        0.0000000000000000        1.0000000000000000     
   4.6875000000000000E-002  0.48437500000000000        2.1216032660116126        2.1216032660116126        0.0000000000000000        1.0000000000000000     
   4.6875000000000000E-002  0.51562500000000000        2.0759377212131951        2.0759377212131951        0.0000000000000000        1.0000000000000000     
   4.6875000000000000E-002  0.54687500000000000        2.0462303061489990        2.0462303061489990        0.0000000000000000        1.0000000000000000     
   4.6875000000000000E-002  0.57812500000000000        2.0275156183577847        2.0275156183577847        0.0000000000000000        1.0000000000000000     
   4.6875000000000000E-002  0.60937500000000000        2.0160500163921462        2.0160500163921462        0.0000000000000000        1.0000000000000000     
   4.6875000000000000E-002  0.64062500000000000        2.0091945597748868        2.0091945597748868        0.0000000000000000        1.0000000000000000     
   4.6875000000000000E-002  0.67187500000000000        2.0051824722582055        2.0051824722582055        0.0000000000000000        1.0000000000000000     
   4.6875000000000000E-002  0.70312500000000000        2.0028785848319290        2.0028785848319290        0.0000000000000000        1.0000000000000000     
   4.6875000000000000E-002  0.73437500000000000        2.0015777987274439        2.0015777987274439        0.0000000000000000        1.0000000000000000     
   4.6875000000000000E-002  0.76562500000000000        2.0008544133589297        2.0008544133589297        0.0000000000000000        1.0000000000000000     
   4.6875000000000000E-002  0.79687500000000000        2.0004575699249920        2.0004575699249920        0.0000000000000000        1.0000000000000000     
   4.6875000000000000E-002  0.82812500000000000        2.0002425041909970        2.0002425041909970        0.0000000000000000        1.0000000000000000     
   4.6875000000000000E-002  0.85937500000000000        2.0001271787114763        2.0001271787114763        0.0000000000000000        1.0000000000000000     
   4.6875000000000000E-002  0.89062500000000000        2.0000658139207816        2.0000658139207816        0.0000000000000000        1.0000000000000000     
   4.6875000000000000E-002  0.92187500000000000        2.0000331560846272        2.0000331560846272        0.0000000000000000        1.0000000000000000     
   4.6875000000000000E-002  0.95312500000000000        2.0000153080678782        2.0000153080678782        0.0000000000000000        1.0000000000000000     
   4.6875000000000000E-002  0.98437500000000000        2.0000044248878139        2.0000044248878139        0.0000000000000000        1.0000000000000000     
   4.6875000000000000E-002   1.0156250000000000        1.9999955751121861        1.9999955751121861        0.0000000000000000        1.0000000000000000     
   7.8125000000000000E-002  -1.5625000000000000E-002   3.0033272669075313        3.0033272669075313        1.0000000000000000        0.0000000000000000     
   7.8125000000000000E-002   1.5625000000000000E-002   2.9966727330924687        2.9966727330924687        1.0000000000000000        0.0000000000000000     
   7.8125000000000000E-002   4.6875000000000000E-002   2.9901441547363237        2.9901441547363237        1.0000000000000000        0.0000000000000000     
   7.8125000000000000E-002   7.8125000000000000E-002   2.9839800321966554        2.9839800321966554        1.0000000000000000        0.0000000000000000     
   7.8125000000000000E-002  0.10937500000000000        2.9783800951199697        2.9783800951199697        1.0000000000000000        0.0000000000000000     
   7.8125000000000000E-002  0.14062500000000000        2.9734841521029773        2.9734841521029773        1.0000000000000000        0.0000000000000000     
   7.8125000000000000E-002  0.17187500000000000        2.9693573458668365        2.9693573458668365        1.0000000000000000        0.0000000000000000     
   7.8125000000000000E-002  0.20312500000000000        2.9659833093777817        2.9659833093777817        1.0000000000000000        0.0000000000000000     
   7.8125000000000000E-002  0.23437500000000000        2.9632659072915981        2.9632659072915981        1.0000000000000000        0.0000000000000000     
   7.8125000000000000E-002  0.26562500000000000        2.9610393816798370        2.9610393816798370        1.0000000000000000        0.0000000000000000     
   7.8125000000000000E-002  0.29687500000000000        2.9594765718144651        2.9167558864348098       0.60000000000000031       0.39999999999999963     
   7.8125000000000000E-002  0.32812500000000000        2.7702868953438484        2.7702868953438484        0.0000000000000000        1.0000000000000000     
   7.8125000000000000E-002  0.35937500000000000        2.5775600174655815        2.5775600174655815        0.0000000000000000        1.0000000000000000     
   7.8125000000000000E-002  0.39062500000000000        2.4141114495818639        2.4141114495818639        0.0000000000000000        1.0000000000000000     
   7.8125000000000000E-002  0.42187500000000000        2.2850753839839975        2.2850753839839975        0.0000000000000000        1.0000000000000000     
   7.8125000000000000E-002  0.45312500000000000        2.1892254201908079        2.1892254201908079        0.0000000000000000        1.0000000000000000     
   7.8125000000000000E-002  0.48437500000000000        2.1216032660116131        2.1216032660116131        0.0000000000000000        1.0000000000000000     
   7.8125000000000000E-002  0.51562500000000000        2.0759377212131955        2.0759377212131955        0.0000000000000000        1.0000000000000000     
   7.8125000000000000E-002  0.54687500000000000        2.0462303061489990        2.0462303061489990        0.0000000000000000        1.0000000000000000     
   7.8125000000000000E-002  0.57812500000000000        2.0275156183577847        2.0275156183577847        0.0000000000000000        1.0000000000000000     
   7.8125000000000000E-002  0.60937500000000000        2.0160500163921462        2.0160500163921462        0.0000000000000000        1.0000000000000000     
   7.8125000000000000E-002  0.64062500000000000        2.0091945597748868        2.0091945597748868        0.0000000000000000        1.0000000000000000     
   7.8125000000000000E-002  0.67187500000000000        2.0051824722582055        2.0051824722582055        0.0000000000000000        1.0000000000000000     
   7.8125000000000000E-002  0.70312500000000000        2.0028785848319290        2.0028785848319290        0.0000000000000000        1.0000000000000000     
   7.8125000000000000E-002  0.73437500000000000        2.0015777987274439        2.0015777987274439        0.0000000000000000        1.0000000000000000     
   7.8125000000000000E-002  0.76562500000000000        2.0008544133589292        2.0008544133589292        0.0000000000000000        1.0000000000000000     
   7.8125000000000000E-002  0.79687500000000000        2.0004575699249920        2.0004575699249920        0.0000000000000000        1.0000000000000000     
   7.8125000000000000E-002  0.82812500000000000        2.0002425041909970        2.0002425041909970        0.0000000000000000        1.0000000000000000     
   7.8125000000000000E-002  0.85937500000000000        2.0001271787114763        2.0001271787114763        0.0000000000000000        1.0000000000000000     
   7.8125000000000000E-002  0.89062500000000000        2.0000658139207816        2.0000658139207816        0.0000000000000000        1.0000000000000000     
   7.8125000000000000E-002  0.92187500000000000        2.0000331560846272        2.0000331560846272        0.0000000000000000        1.0000000000000000     
   7.8125000000000000E-002  0.95312500000000000        2.0000153080678782        2.0000153080678782        0.0000000000000000        1.0000000000000000     
   7.8125000000000000E-002  0.98437500000000000        2.0000044248878139        2.0000044248878139        0.0000000000000000        1.0000000000000000     
   7.8125000000000000E-002   1.0156250000000000        1.9999955751121861        1.9999955751121861        0.0000000000000000        1.0000000000000000     
  0.10937500000000000       -1.5625000000000000E-002   3.0033272669075313        3.0033272669075313        1.0000000000000000        0.0000000000000000     
  0.10937500000000000        1.5625000000000000E-002   2.9966727330924687        2.9966727330924687        1.0000000000000000        0.0000000000000000     
  0.10937500000000000        4.6875000000000000E-002   2.9901441547363237        2.9901441547363237        1.0000000000000000        0.0000000000000000     
  0.10937500000000000        7.8125000000000000E-002   2.9839800321966554        2.9839800321966554        1.0000000000000000        0.0000000000000000     
  0.10937500000000000       0.10937500000000000        2.9783800951199697        2.9783800951199697        1.0000000000000000        0.0000000000000000     
  0.10937500000000000       0.14062500000000000        2.9734841521029773        2.9734841521029773        1.0000000000000000        0.0000000000000000     
  0.10937500000000000       0.17187500000000000        2.9693573458668365        2.9693573458668365        1.0000000000000000        0.0000000000000000     
  0.10937500000000000       0.20312500000000000        2.9659833093777817        2.9659833093777817        1.0000000000000000        0.0000000000000000     
  0.10937500000000000       0.23437500000000000        2.9632659072915981        2.9632659072915981        1.0000000000000000        0.0000000000000000     
  0.10937500000000000       0.26562500000000000        2.9610393816798370        2.9610393816798370        1.0000000000000000        0.0000000000000000     
  0.10937500000000000       0.29687500000000000        2.9594765718144651        2.9167558864348040       0.60000000000000031       0.39999999999999963     
  0.10937500000000000       0.32812500000000000        2.7702868953438489        2.7702868953438489        0.0000000000000000        1.0000000000000000     
  0.10937500000000000       0.35937500000000000        2.5775600174655819        2.5775600174655819        0.0000000000000000        1.0000000000000000     
  0.10937500000000000       0.39062500000000000        2.4141114495818639        2.4141114495818639        0.0000000000000000        1.0000000000000000     
  0.10937500000000000       0.42187500000000000        2.2850753839839975        2.2850753839839975        0.0000000000000000        1.0000000000000000     
  0.10937500000000000       0.45312500000000000        2.1892254201908083        2.1892254201908083        0.0000000000000000        1.0000000000000000     
  0.10937500000000000       0.48437500000000000        2.1216032660116131        2.1216032660116131        0.0000000000000000        1.0000000000000000     
  0.10937500000000000       0.51562500000000000        2.0759377212131955        2.0759377212131955        0.0000000000000000        1.0000000000000000     
  0.10937500000000000       0.54687500000000000        2.0462303061489990        2.0462303061489990        0.0000000000000000        1.0000000000000000     
  0.10937500000000000       0.57812500000000000        2.0275156183577847        2.0275156183577847        0.0000000000000000        1.0000000000000000     
  0.10937500000000000       0.60937500000000000        2.0160500163921458        2.0160500163921458        0.0000000000000000        1.0000000000000000     
  0.10937500000000000       0.64062500000000000        2.0091945597748868        2.0091945597748868        0.0000000000000000        1.0000000000000000     
  0.10937500000000000       0.67187500000000000        2.0051824722582055        2.0051824722582055        0.0000000000000000        1.0000000000000000     
  0.10937500000000000       0.70312500000000000        2.0028785848319290        2.0028785848319290        0.0000000000000000        1.0000000000000000     
  0.10937500000000000       0.73437500000000000        2.0015777987274439        2.0015777987274439        0.0000000000000000        1.0000000000000000     
  0.10937500000000000       0.76562500000000000        2.0008544133589292        2.0008544133589292        0.0000000000000000        1.0000000000000000     
  0.10937500000000000       0.79687500000000000        2.0004575699249920        2.0004575699249920        0.0000000000000000        1.0000000000000000     
  0.10937500000000000       0.82812500000000000        2.0002425041909970        2.0002425041909970        0.0000000000000000        1.0000000000000000     
  0.10937500000000000       0.85937500000000000        2.0001271787114763        2.0001271787114763        0.0000000000000000        1.0000000000000000     
  0.10937500000000000       0.89062500000000000        2.0000658139207816        2.0000658139207816        0.0000000000000000        1.0000000000000000     
  0.10937500000000000       0.92187500000000000        2.0000331560846272        2.0000331560846272        0.0000000000000000        1.0000000000000000     
  0.10937500000000000       0.95312500000000000        2.0000153080678782        2.0000153080678782        0.0000000000000000        1.0000000000000000     
  0.10937500000000000       0.98437500000000000        2.0000044248878139        2.0000044248878139        0.0000000000000000        1.0000000000000000     
  0.10937500000000000        1.0156250000000000        1.9999955751121861        1.9999955751121861        0.0000000000000000        1.0000000000000000     
  0.14062500000000000       -1.5625000000000000E-002   3.0033272669075313        3.0033272669075313        1.0000000000000000        0.0000000000000000     
  0.14062500000000000        1.5625000000000000E-002   2.9966727330924687        2.9966727330924687        1.0000000000000000        0.0000000000000000     
  0.14062500000000000        4.6875000000000000E-002   2.9901441547363237        2.9901441547363237        1.0000000000000000        0.0000000000000000     
  0.14062500000000000        7.8125000000000000E-002   2.9839800321966554        2.9839800321966554        1.0000000000000000        0.0000000000000000     
  0.14062500000000000       0.10937500000000000        2.9783800951199697        2.9783800951199697        1.0000000000000000        0.0000000000000000     
  0.14062500000000000       0.14062500000000000        2.9734841521029773        2.9734841521029773        1.0000000000000000        0.0000000000000000     
  0.14062500000000000       0.17187500000000000        2.9693573458668365        2.9693573458668365        1.0000000000000000        0.0000000000000000     
  0.14062500000000000       0.20312500000000000        2.9659833093777817        2.9659833093777817        1.0000000000000000        0.0000000000000000     
  0.14062500000000000       0.23437500000000000        2.9632659072915981        2.9632659072915981        1.0000000000000000        0.0000000000000000     
  0.14062500000000000       0.26562500000000000        2.9610393816798370        2.9610393816798370        1.0000000000000000        0.0000000000000000     
  0.14062500000000000       0.29687500000000000        2.9594765718144651        2.9167558864348040       0.60000000000000031       0.39999999999999963     
  0.14062500000000000       0.32812500000000000        2.7702868953438489        2.7702868953438489        0.0000000000000000        1.0000000000000000     
  0.14062500000000000       0.35937500000000000        2.5775600174655819        2.5775600174655819        0.0000000000000000        1.0000000000000000     
  0.14062500000000000       0.39062500000000000        2.4141114495818643        2.4141114495818643        0.0000000000000000        1.0000000000000000     
  0.14062500000000000       0.42187500000000000        2.2850753839839975        2.2850753839839975        0.0000000000000000        1.0000000000000000     
  0.14062500000000000       0.45312500000000000        2.1892254201908083        2.1892254201908083        0.0000000000000000        1.0000000000000000     
  0.14062500000000000       0.48437500000000000        2.1216032660116131        2.1216032660116131        0.0000000000000000        1.0000000000000000     
  0.14062500000000000       0.51562500000000000        2.0759377212131955        2.0759377212131955        0.0000000000000000        1.0000000000000000     
  0.14062500000000000       0.54687500000000000        2.0462303061489990        2.0462303061489990        0.0000000000000000        1.0000000000000000     
  0.14062500000000000       0.57812500000000000        2.0275156183577847        2.0275156183577847        0.0000000000000000        1.0000000000000000     