 VARIABLES="X","Y","U1","U2","F1","F2"
 zone i=          34  j=          34  f=point
 SOLUTIONTIME=  0.23750000000000002       STRANDID=          20
  -1.5625000000000000E-002  -1.5625000000000000E-002   2.0000000000000000        2.0000000000000000        1.0000000000000000        0.0000000000000000     
  -1.5625000000000000E-002   1.5625000000000000E-002   2.9978595717669556        2.9978595717669556        1.0000000000000000        0.0000000000000000     
  -1.5625000000000000E-002   4.6875000000000000E-002   2.9935787172614643        2.9935787172614643        1.0000000000000000        0.0000000000000000     
  -1.5625000000000000E-002   7.8125000000000000E-002   2.9892978692900241        2.9892978692900241        1.0000000000000000        0.0000000000000000     
  -1.5625000000000000E-002  0.10937500000000000        2.9850170282158861        2.9850170282158861        1.0000000000000000        0.0000000000000000     
  -1.5625000000000000E-002  0.14062500000000000        2.9807361959743579        2.9807361959743579        1.0000000000000000        0.0000000000000000     
  -1.5625000000000000E-002  0.17187500000000000        2.9764553759281935        2.9764553759281935        1.0000000000000000        0.0000000000000000     
  -1.5625000000000000E-002  0.20312500000000000        2.9721745679340223        2.9721745679340223        1.0000000000000000        0.0000000000000000     
  -1.5625000000000000E-002  0.23437500000000000        2.9678937684468867        2.9678937684468867        1.0000000000000000        0.0000000000000000     
  -1.5625000000000000E-002  0.26562500000000000        2.9636129754078149        2.9636129754078149        1.0000000000000000        0.0000000000000000     
  -1.5625000000000000E-002  0.29687500000000000        2.9601883456086715        2.9364561888517753       0.60000000000000031       0.39999999999999963     
  -1.5625000000000000E-002  0.32812500000000000        2.8580296047702762        2.8580296047702762        0.0000000000000000        1.0000000000000000     
  -1.5625000000000000E-002  0.35937500000000000        2.7482498422522417        2.7482498422522417        0.0000000000000000        1.0000000000000000     
  -1.5625000000000000E-002  0.39062500000000000        2.6430733203875403        2.6430733203875403        0.0000000000000000        1.0000000000000000     
  -1.5625000000000000E-002  0.42187500000000000        2.5445261512317354        2.5445261512317354        0.0000000000000000        1.0000000000000000     
  -1.5625000000000000E-002  0.45312500000000000        2.4541965297683603        2.4541965297683603        0.0000000000000000        1.0000000000000000     
  -1.5625000000000000E-002  0.48437500000000000        2.3731663149903151        2.3731663149903151        0.0000000000000000        1.0000000000000000     
  -1.5625000000000000E-002  0.51562500000000000        2.3019961888280407        2.3019961888280407        0.0000000000000000        1.0000000000000000     
  -1.5625000000000000E-002  0.54687500000000000        2.2407592818823439        2.2407592818823439        0.0000000000000000        1.0000000000000000     
  -1.5625000000000000E-002  0.57812500000000000        2.1891120991549227        2.1891120991549227        0.0000000000000000        1.0000000000000000     
  -1.5625000000000000E-002  0.60937500000000000        2.1463884192362599        2.1463884192362599        0.0000000000000000        1.0000000000000000     
  -1.5625000000000000E-002  0.64062500000000000        2.1117016050333901        2.1117016050333901        0.0000000000000000        1.0000000000000000     
  -1.5625000000000000E-002  0.67187500000000000        2.0840428410330905        2.0840428410330905        0.0000000000000000        1.0000000000000000     
  -1.5625000000000000E-002  0.70312500000000000        2.0623662630265907        2.0623662630265907        0.0000000000000000        1.0000000000000000     
  -1.5625000000000000E-002  0.73437500000000000        2.0456558129789579        2.0456558129789579        0.0000000000000000        1.0000000000000000     
  -1.5625000000000000E-002  0.76562500000000000        2.0329721706588537        2.0329721706588537        0.0000000000000000        1.0000000000000000     
  -1.5625000000000000E-002  0.79687500000000000        2.0234808163463796        2.0234808163463796        0.0000000000000000        1.0000000000000000     
  -1.5625000000000000E-002  0.82812500000000000        2.0164639934517772        2.0164639934517772        0.0000000000000000        1.0000000000000000     
  -1.5625000000000000E-002  0.85937500000000000        2.0113201245432304        2.0113201245432304        0.0000000000000000        1.0000000000000000     
  -1.5625000000000000E-002  0.89062500000000000        2.0075542832812450        2.0075542832812450        0.0000000000000000        1.0000000000000000     
  -1.5625000000000000E-002  0.92187500000000000        2.0047628816517551        2.0047628816517551        0.0000000000000000        1.0000000000000000     
  -1.5625000000000000E-002  0.95312500000000000        2.0026150318526108        2.0026150318526108        0.0000000000000000        1.0000000000000000     
  -1.5625000000000000E-002  0.98437500000000000        2.0008322799640177        2.0008322799640177        0.0000000000000000        1.0000000000000000     
  -1.5625000000000000E-002   1.0156250000000000        2.0000000000000000        2.0000000000000000        0.0000000000000000        1.0000000000000000     
   1.5625000000000000E-002  -1.5625000000000000E-002   3.0021404282330444        3.0021404282330444        1.0000000000000000        0.0000000000000000     
   1.5625000000000000E-002   1.5625000000000000E-002   2.9978595717669556        2.9978595717669556        1.0000000000000000        0.0000000000000000     
   1.5625000000000000E-002   4.6875000000000000E-002   2.9935787172614643        2.9935787172614643        1.0000000000000000        0.0000000000000000     
   1.5625000000000000E-002   7.8125000000000000E-002   2.9892978692900241        2.9892978692900241        1.0000000000000000        0.0000000000000000     
   1.5625000000000000E-002  0.10937500000000000        2.9850170282158861        2.9850170282158861        1.0000000000000000        0.0000000000000000     
   1.5625000000000000E-002  0.14062500000000000        2.9807361959743579        2.9807361959743579        1.0000000000000000        0.0000000000000000     
   1.5625000000000000E-002  0.17187500000000000        2.9764553759281935        2.9764553759281935        1.0000000000000000        0.0000000000000000     
   1.5625000000000000E-002  0.20312500000000000        2.9721745679340223        2.9721745679340223        1.0000000000000000        0.0000000000000000     
   1.5625000000000000E-002  0.23437500000000000        2.9678937684468867        2.9678937684468867        1.0000000000000000        0.0000000000000000     
   1.5625000000000000E-002  0.26562500000000000        2.9636129754078149        2.9636129754078149        1.0000000000000000        0.0000000000000000     
   1.5625000000000000E-002  0.29687500000000000        2.9601883456086715        2.9364561888517753       0.60000000000000031       0.39999999999999963     
   1.5625000000000000E-002  0.32812500000000000        2.8580296047702762        2.8580296047702762        0.0000000000000000        1.0000000000000000     
   1.5625000000000000E-002  0.35937500000000000        2.7482498422522417        2.7482498422522417        0.0000000000000000        1.0000000000000000     
   1.5625000000000000E-002  0.39062500000000000        2.6430733203875403        2.6430733203875403        0.0000000000000000        1.0000000000000000     
   1.5625000000000000E-002  0.42187500000000000        2.5445261512317354        2.5445261512317354        0.0000000000000000        1.0000000000000000     
   1.5625000000000000E-002  0.45312500000000000        2.4541965297683603        2.4541965297683603        0.0000000000000000        1.0000000000000000     
   1.5625000000000000E-002  0.48437500000000000        2.3731663149903151        2.3731663149903151        0.0000000000000000        1.0000000000000000     
   1.5625000000000000E-002  0.51562500000000000        2.3019961888280407        2.3019961888280407        0.0000000000000000        1.0000000000000000     
   1.5625000000000000E-002  0.54687500000000000        2.2407592818823439        2.2407592818823439        0.0000000000000000        1.0000000000000000     
   1.5625000000000000E-002  0.57812500000000000        2.1891120991549227        2.1891120991549227        0.0000000000000000        1.0000000000000000     
   1.5625000000000000E-002  0.60937500000000000        2.1463884192362599        2.1463884192362599        0.0000000000000000        1.0000000000000000     
   1.5625000000000000E-002  0.64062500000000000        2.1117016050333901        2.1117016050333901        0.0000000000000000        1.0000000000000000     
   1.5625000000000000E-002  0.67187500000000000        2.0840428410330905        2.0840428410330905        0.0000000000000000        1.0000000000000000     
   1.5625000000000000E-002  0.70312500000000000        2.0623662630265907        2.0623662630265907        0.0000000000000000        1.0000000000000000     
   1.5625000000000000E-002  0.73437500000000000        2.0456558129789579        2.0456558129789579        0.0000000000000000        1.0000000000000000     
   1.5625000000000000E-002  0.76562500000000000        2.0329721706588537        2.0329721706588537        0.0000000000000000        1.0000000000000000     
   1.5625000000000000E-002  0.79687500000000000        2.0234808163463796        2.0234808163463796        0.0000000000000000        1.0000000000000000     
   1.5625000000000000E-002  0.82812500000000000        2.0164639934517772        2.0164639934517772        0.0000000000000000        1.0000000000000000     
   1.5625000000000000E-002  0.85937500000000000        2.0113201245432304        2.0113201245432304        0.0000000000000000        1.0000000000000000     
   1.5625000000000000E-002  0.89062500000000000        2.0075542832812450        2.0075542832812450        0.0000000000000000        1.0000000000000000     
   1.5625000000000000E-002  0.92187500000000000        2.0047628816517551        2.0047628816517551        0.0000000000000000        1.0000000000000000     
   1.5625000000000000E-002  0.95312500000000000        2.0026150318526108        2.0026150318526108        0.0000000000000000        1.0000000000000000     
   1.5625000000000000E-002  0.98437500000000000        2.0008322799640177        2.0008322799640177        0.0000000000000000        1.0000000000000000     
   1.5625000000000000E-002   1.0156250000000000        1.9991677200359823        1.9991677200359823        0.0000000000000000        1.0000000000000000     
   4.6875000000000000E-002  -1.5625000000000000E-002   3.0021404282330444        3.0021404282330444        1.0000000000000000        0.0000000000000000     
   4.6875000000000000E-002   1.5625000000000000E-002   2.9978595717669556        2.9978595717669556        1.0000000000000000        0.0000000000000000     
   4.6875000000000000E-002   4.6875000000000000E-002   2.9935787172614643        2.9935787172614643        1.0000000000000000        0.0000000000000000     
   4.6875000000000000E-002   7.8125000000000000E-002   2.9892978692900241        2.9892978692900241        1.0000000000000000        0.0000000000000000     
   4.6875000000000000E-002  0.10937500000000000        2.9850170282158861        2.9850170282158861        1.0000000000000000        0.0000000000000000     
   4.6875000000000000E-002  0.14062500000000000        2.9807361959743579        2.9807361959743579        1.0000000000000000        0.0000000000000000     
   4.6875000000000000E-002  0.17187500000000000        2.9764553759281935        2.9764553759281935        1.0000000000000000        0.0000000000000000     
   4.6875000000000000E-002  0.20312500000000000        2.9721745679340223        2.9721745679340223        1.0000000000000000        0.0000000000000000     
   4.6875000000000000E-002  0.23437500000000000        2.9678937684468867        2.9678937684468867        1.0000000000000000        0.0000000000000000     
   4.6875000000000000E-002  0.26562500000000000        2.9636129754078144        2.9636129754078144        1.0000000000000000        0.0000000000000000     
   4.6875000000000000E-002  0.29687500000000000        2.9601883456086711        2.9364561888517757       0.60000000000000031       0.39999999999999963     
   4.6875000000000000E-002  0.32812500000000000        2.8580296047702762        2.8580296047702762        0.0000000000000000        1.0000000000000000     
   4.6875000000000000E-002  0.35937500000000000        2.7482498422522417        2.7482498422522417        0.0000000000000000        1.0000000000000000     
   4.6875000000000000E-002  0.39062500000000000        2.6430733203875403        2.6430733203875403        0.0000000000000000        1.0000000000000000     
   4.6875000000000000E-002  0.42187500000000000        2.5445261512317354        2.5445261512317354        0.0000000000000000        1.0000000000000000     
   4.6875000000000000E-002  0.45312500000000000        2.4541965297683603        2.4541965297683603        0.0000000000000000        1.0000000000000000     
   4.6875000000000000E-002  0.48437500000000000        2.3731663149903151        2.3731663149903151        0.0000000000000000        1.0000000000000000     
   4.6875000000000000E-002  0.51562500000000000        2.3019961888280407        2.3019961888280407        0.0000000000000000        1.0000000000000000     
   4.6875000000000000E-002  0.54687500000000000        2.2407592818823439        2.2407592818823439        0.0000000000000000        1.0000000000000000     
   4.6875000000000000E-002  0.57812500000000000        2.1891120991549227        2.1891120991549227        0.0000000000000000        1.0000000000000000     
   4.6875000000000000E-002  0.60937500000000000        2.1463884192362599        2.1463884192362599        0.0000000000000000        1.0000000000000000     
   4.6875000000000000E-002  0.64062500000000000        2.1117016050333901        2.1117016050333901        0.0000000000000000        1.0000000000000000     
   4.6875000000000000E-002  0.67187500000000000        2.0840428410330905        2.0840428410330905        0.0000000000000000        1.0000000000000000     
   4.6875000000000000E-002  0.70312500000000000        2.0623662630265907        2.0623662630265907        0.0000000000000000        1.0000000000000000     
   4.6875000000000000E-002  0.73437500000000000        2.0456558129789579        2.0456558129789579        0.0000000000000000        1.0000000000000000     
   4.6875000000000000E-002  0.76562500000000000        2.0329721706588537        2.0329721706588537        0.0000000000000000        1.0000000000000000     
   4.6875000000000000E-002  0.79687500000000000        2.0234808163463796        2.0234808163463796        0.0000000000000000        1.0000000000000000     
   4.6875000000000000E-002  0.82812500000000000        2.0164639934517772        2.0164639934517772        0.0000000000000000        1.0000000000000000     
   4.6875000000000000E-002  0.85937500000000000        2.0113201245432304        2.0113201245432304        0.0000000000000000        1.0000000000000000     
   4.6875000000000000E-002  0.89062500000000000        2.0075542832812450        2.0075542832812450        0.0000000000000000        1.0000000000000000     
   4.6875000000000000E-002  0.92187500000000000        2.0047628816517551        2.0047628816517551        0.0000000000000000        1.0000000000000000     
   4.6875000000000000E-002  0.95312500000000000        2.0026150318526108        2.0026150318526108        0.0000000000000000        1.0000000000000000     
   4.6875000000000000E-002  0.98437500000000000        2.0008322799640177        2.0008322799640177        0.0000000000000000        1.0000000000000000     
   4.6875000000000000E-002   1.0156250000000000        1.9991677200359823        1.9991677200359823        0.0000000000000000        1.0000000000000000     
   7.8125000000000000E-002  -1.5625000000000000E-002   3.0021404282330444        3.0021404282330444        1.0000000000000000        0.0000000000000000     
   7.8125000000000000E-002   1.5625000000000000E-002   2.9978595717669556        2.9978595717669556        1.0000000000000000        0.0000000000000000     
   7.8125000000000000E-002   4.6875000000000000E-002   2.9935787172614643        2.9935787172614643        1.0000000000000000        0.0000000000000000     
   7.8125000000000000E-002   7.8125000000000000E-002   2.9892978692900241        2.9892978692900241        1.0000000000000000        0.0000000000000000     
   7.8125000000000000E-002  0.10937500000000000        2.9850170282158861        2.9850170282158861        1.0000000000000000        0.0000000000000000     
   7.8125000000000000E-002  0.14062500000000000        2.9807361959743579        2.9807361959743579        1.0000000000000000        0.0000000000000000     
   7.8125000000000000E-002  0.17187500000000000        2.9764553759281935        2.9764553759281935        1.0000000000000000        0.0000000000000000     
   7.8125000000000000E-002  0.20312500000000000        2.9721745679340223        2.9721745679340223        1.0000000000000000        0.0000000000000000     
   7.8125000000000000E-002  0.23437500000000000        2.9678937684468867        2.9678937684468867        1.0000000000000000        0.0000000000000000     
   7.8125000000000000E-002  0.26562500000000000        2.9636129754078144        2.9636129754078144        1.0000000000000000        0.0000000000000000     
   7.8125000000000000E-002  0.29687500000000000        2.9601883456086711        2.9364561888517766       0.60000000000000031       0.39999999999999963     
   7.8125000000000000E-002  0.32812500000000000        2.8580296047702762        2.8580296047702762        0.0000000000000000        1.0000000000000000     
   7.8125000000000000E-002  0.35937500000000000        2.7482498422522417        2.7482498422522417        0.0000000000000000        1.0000000000000000     
   7.8125000000000000E-002  0.39062500000000000        2.6430733203875403        2.6430733203875403        0.0000000000000000        1.0000000000000000     
   7.8125000000000000E-002  0.42187500000000000        2.5445261512317354        2.5445261512317354        0.0000000000000000        1.0000000000000000     
   7.8125000000000000E-002  0.45312500000000000        2.4541965297683603        2.4541965297683603        0.0000000000000000        1.0000000000000000     
   7.8125000000000000E-002  0.48437500000000000        2.3731663149903151        2.3731663149903151        0.0000000000000000        1.0000000000000000     
   7.8125000000000000E-002  0.51562500000000000        2.3019961888280407        2.3019961888280407        0.0000000000000000        1.0000000000000000     
   7.8125000000000000E-002  0.54687500000000000        2.2407592818823439        2.2407592818823439        0.0000000000000000        1.0000000000000000     
   7.8125000000000000E-002  0.57812500000000000        2.1891120991549227        2.1891120991549227        0.0000000000000000        1.0000000000000000     
   7.8125000000000000E-002  0.60937500000000000        2.1463884192362599        2.1463884192362599        0.0000000000000000        1.0000000000000000     
   7.8125000000000000E-002  0.64062500000000000        2.1117016050333901        2.1117016050333901        0.0000000000000000        1.0000000000000000     
   7.8125000000000000E-002  0.67187500000000000        2.0840428410330905        2.0840428410330905        0.0000000000000000        1.0000000000000000     
   7.8125000000000000E-002  0.70312500000000000        2.0623662630265907        2.0623662630265907        0.0000000000000000        1.0000000000000000     
   7.8125000000000000E-002  0.73437500000000000        2.0456558129789579        2.0456558129789579        0.0000000000000000        1.0000000000000000     
   7.8125000000000000E-002  0.76562500000000000        2.0329721706588537        2.0329721706588537        0.0000000000000000        1.0000000000000000     
   7.8125000000000000E-002  0.79687500000000000        2.0234808163463796        2.0234808163463796        0.0000000000000000        1.0000000000000000     
   7.8125000000000000E-002  0.82812500000000000        2.0164639934517772        2.0164639934517772        0.0000000000000000        1.0000000000000000     
   7.8125000000000000E-002  0.85937500000000000        2.0113201245432304        2.0113201245432304        0.0000000000000000        1.0000000000000000     
   7.8125000000000000E-002  0.89062500000000000        2.0075542832812450        2.0075542832812450        0.0000000000000000        1.0000000000000000     
   7.8125000000000000E-002  0.92187500000000000        2.0047628816517551        2.0047628816517551        0.0000000000000000        1.0000000000000000     
   7.8125000000000000E-002  0.95312500000000000        2.0026150318526108        2.0026150318526108        0.0000000000000000        1.0000000000000000     
   7.8125000000000000E-002  0.98437500000000000        2.0008322799640177        2.0008322799640177        0.0000000000000000        1.0000000000000000     
   7.8125000000000000E-002   1.0156250000000000        1.9991677200359823        1.9991677200359823        0.0000000000000000        1.0000000000000000     
  0.10937500000000000       -1.5625000000000000E-002   3.0021404282330444        3.0021404282330444        1.0000000000000000        0.0000000000000000     
  0.10937500000000000        1.5625000000000000E-002   2.9978595717669556        2.9978595717669556        1.0000000000000000        0.0000000000000000     
  0.10937500000000000        4.6875000000000000E-002   2.9935787172614643        2.9935787172614643        1.0000000000000000        0.0000000000000000     
  0.10937500000000000        7.8125000000000000E-002   2.9892978692900241        2.9892978692900241        1.0000000000000000        0.0000000000000000     
  0.10937500000000000       0.10937500000000000        2.9850170282158861        2.9850170282158861        1.0000000000000000        0.0000000000000000     
  0.10937500000000000       0.14062500000000000        2.9807361959743579        2.9807361959743579        1.0000000000000000        0.0000000000000000     
  0.10937500000000000       0.17187500000000000        2.9764553759281935        2.9764553759281935        1.0000000000000000        0.0000000000000000     
  0.10937500000000000       0.20312500000000000        2.9721745679340223        2.9721745679340223        1.0000000000000000        0.0000000000000000     
  0.10937500000000000       0.23437500000000000        2.9678937684468867        2.9678937684468867        1.0000000000000000        0.0000000000000000     
  0.10937500000000000       0.26562500000000000        2.9636129754078144        2.9636129754078144        1.0000000000000000        0.0000000000000000     
  0.10937500000000000       0.29687500000000000        2.9601883456086711        2.9364561888517731       0.60000000000000031       0.39999999999999963     
  0.10937500000000000       0.32812500000000000        2.8580296047702762        2.8580296047702762        0.0000000000000000        1.0000000000000000     
  0.10937500000000000       0.35937500000000000        2.7482498422522417        2.7482498422522417        0.0000000000000000        1.0000000000000000     
  0.10937500000000000       0.39062500000000000        2.6430733203875407        2.6430733203875407        0.0000000000000000        1.0000000000000000     
  0.10937500000000000       0.42187500000000000        2.5445261512317359        2.5445261512317359        0.0000000000000000        1.0000000000000000     
  0.10937500000000000       0.45312500000000000        2.4541965297683603        2.4541965297683603        0.0000000000000000        1.0000000000000000     
  0.10937500000000000       0.48437500000000000        2.3731663149903151        2.3731663149903151        0.0000000000000000        1.0000000000000000     
  0.10937500000000000       0.51562500000000000        2.3019961888280407        2.3019961888280407        0.0000000000000000        1.0000000000000000     
  0.10937500000000000       0.54687500000000000        2.2407592818823439        2.2407592818823439        0.0000000000000000        1.0000000000000000     
  0.10937500000000000       0.57812500000000000        2.1891120991549227        2.1891120991549227        0.0000000000000000        1.0000000000000000     
  0.10937500000000000       0.60937500000000000        2.1463884192362599        2.1463884192362599        0.0000000000000000        1.0000000000000000     
  0.10937500000000000       0.64062500000000000        2.1117016050333901        2.1117016050333901        0.0000000000000000        1.0000000000000000     
  0.10937500000000000       0.67187500000000000        2.0840428410330905        2.0840428410330905        0.0000000000000000        1.0000000000000000     
  0.10937500000000000       0.70312500000000000        2.0623662630265907        2.0623662630265907        0.0000000000000000        1.0000000000000000     
  0.10937500000000000       0.73437500000000000        2.0456558129789579        2.0456558129789579        0.0000000000000000        1.0000000000000000     
  0.10937500000000000       0.76562500000000000        2.0329721706588537        2.0329721706588537        0.0000000000000000        1.0000000000000000     
  0.10937500000000000       0.79687500000000000        2.0234808163463796        2.0234808163463796        0.0000000000000000        1.0000000000000000     
  0.10937500000000000       0.82812500000000000        2.0164639934517772        2.0164639934517772        0.0000000000000000        1.0000000000000000     
  0.10937500000000000       0.85937500000000000        2.0113201245432304        2.0113201245432304        0.0000000000000000        1.0000000000000000     
  0.10937500000000000       0.89062500000000000        2.0075542832812450        2.0075542832812450        0.0000000000000000        1.0000000000000000     
  0.10937500000000000       0.92187500000000000        2.0047628816517551        2.0047628816517551        0.0000000000000000        1.0000000000000000     
  0.10937500000000000       0.95312500000000000        2.0026150318526108        2.0026150318526108        0.0000000000000000        1.0000000000000000     
  0.10937500000000000       0.98437500000000000        2.0008322799640177        2.0008322799640177        0.0000000000000000        1.0000000000000000     
  0.10937500000000000        1.0156250000000000        1.9991677200359823        1.9991677200359823        0.0000000000000000        1.0000000000000000     
  0.14062500000000000       -1.5625000000000000E-002   3.0021404282330439        3.0021404282330439        1.0000000000000000        0.0000000000000000     
  0.14062500000000000        1.5625000000000000E-002   2.9978595717669561        2.9978595717669561        1.0000000000000000        0.0000000000000000     
  0.14062500000000000        4.6875000000000000E-002   2.9935787172614643        2.9935787172614643        1.0000000000000000        0.0000000000000000     
  0.14062500000000000        7.8125000000000000E-002   2.9892978692900241        2.9892978692900241        1.0000000000000000        0.0000000000000000     
  0.14062500000000000       0.10937500000000000        2.9850170282158861        2.9850170282158861        1.0000000000000000        0.0000000000000000     
  0.14062500000000000       0.14062500000000000        2.9807361959743579        2.9807361959743579        1.0000000000000000        0.0000000000000000     
  0.14062500000000000       0.17187500000000000        2.9764553759281935        2.9764553759281935        1.0000000000000000        0.0000000000000000     
  0.14062500000000000       0.20312500000000000        2.9721745679340223        2.9721745679340223        1.0000000000000000        0.0000000000000000     
  0.14062500000000000       0.23437500000000000        2.9678937684468867        2.9678937684468867        1.0000000000000000        0.0000000000000000     
  0.14062500000000000       0.26562500000000000        2.9636129754078144        2.9636129754078144        1.0000000000000000        0.0000000000000000     
  0.14062500000000000       0.29687500000000000        2.9601883456086711        2.9364561888517735       0.60000000000000031       0.39999999999999963     
  0.14062500000000000       0.32812500000000000        2.8580296047702767        2.8580296047702767        0.0000000000000000        1.0000000000000000     
  0.14062500000000000       0.35937500000000000        2.7482498422522421        2.7482498422522421        0.0000000000000000        1.0000000000000000     
  0.14062500000000000       0.39062500000000000        2.6430733203875407        2.6430733203875407        0.0000000000000000        1.0000000000000000     
  0.14062500000000000       0.42187500000000000        2.5445261512317359        2.5445261512317359        0.0000000000000000        1.0000000000000000     
  0.14062500000000000       0.45312500000000000        2.4541965297683608        2.4541965297683608        0.0000000000000000        1.0000000000000000     
  0.14062500000000000       0.48437500000000000        2.3731663149903151        2.3731663149903151        0.0000000000000000        1.0000000000000000     
  0.14062500000000000       0.51562500000000000        2.3019961888280407        2.3019961888280407        0.0000000000000000        1.0000000000000000     
  0.14062500000000000       0.54687500000000000        2.2407592818823439        2.2407592818823439        0.0000000000000000        1.0000000000000000     
  0.14062500000000000       0.57812500000000000        2.1891120991549227        2.1891120991549227        0.0000000000000000        1.0000000000000000     