 VARIABLES="X","Y","U1","U2","F1","F2"
 zone i=          34  j=          34  f=point
 SOLUTIONTIME=   1.2500000000000001E-002  STRANDID=           2
  -1.5625000000000000E-002  -1.5625000000000000E-002   2.0000000000000000        2.0000000000000000        1.0000000000000000        0.0000000000000000     
  -1.5625000000000000E-002   1.5625000000000000E-002   2.8786622654377720        2.8786622654377720        1.0000000000000000        0.0000000000000000     
  -1.5625000000000000E-002   4.6875000000000000E-002   2.7046322859369516        2.7046322859369516        1.0000000000000000        0.0000000000000000     
  -1.5625000000000000E-002   7.8125000000000000E-002   2.5856517048760392        2.5856517048760392        1.0000000000000000        0.0000000000000000     
  -1.5625000000000000E-002  0.10937500000000000        2.5124251623206719        2.5124251623206719        1.0000000000000000        0.0000000000000000     
  -1.5625000000000000E-002  0.14062500000000000        2.4792318345753022        2.4792318345753022        1.0000000000000000        0.0000000000000000     
  -1.5625000000000000E-002  0.17187500000000000        2.4834784948700745        2.4834784948700745        1.0000000000000000        0.0000000000000000     
  -1.5625000000000000E-002  0.20312500000000000        2.5254969135604415        2.5254969135604415        1.0000000000000000        0.0000000000000000     
  -1.5625000000000000E-002  0.23437500000000000        2.6085697777930310        2.6085697777930310        1.0000000000000000        0.0000000000000000     
  -1.5625000000000000E-002  0.26562500000000000        2.7391871553637137        2.7391871553637137        1.0000000000000000        0.0000000000000000     
  -1.5625000000000000E-002  0.29687500000000000        2.8898802558454735        2.7979659735026341       0.60000000000000031       0.39999999999999963     
  -1.5625000000000000E-002  0.32812500000000000        2.4092375538551369        2.4092375538551369        0.0000000000000000        1.0000000000000000     
  -1.5625000000000000E-002  0.35937500000000000        2.1736280829018435        2.1736280829018435        0.0000000000000000        1.0000000000000000     
  -1.5625000000000000E-002  0.39062500000000000        2.0736655544267850        2.0736655544267850        0.0000000000000000        1.0000000000000000     
  -1.5625000000000000E-002  0.42187500000000000        2.0312542410296097        2.0312542410296097        0.0000000000000000        1.0000000000000000     
  -1.5625000000000000E-002  0.45312500000000000        2.0132603033939072        2.0132603033939072        0.0000000000000000        1.0000000000000000     
  -1.5625000000000000E-002  0.48437500000000000        2.0056259777000403        2.0056259777000403        0.0000000000000000        1.0000000000000000     
  -1.5625000000000000E-002  0.51562500000000000        2.0023869463077300        2.0023869463077300        0.0000000000000000        1.0000000000000000     
  -1.5625000000000000E-002  0.54687500000000000        2.0010127151590837        2.0010127151590837        0.0000000000000000        1.0000000000000000     
  -1.5625000000000000E-002  0.57812500000000000        2.0004296665109731        2.0004296665109731        0.0000000000000000        1.0000000000000000     
  -1.5625000000000000E-002  0.60937500000000000        2.0001822948939814        2.0001822948939814        0.0000000000000000        1.0000000000000000     
  -1.5625000000000000E-002  0.64062500000000000        2.0000773422425517        2.0000773422425517        0.0000000000000000        1.0000000000000000     
  -1.5625000000000000E-002  0.67187500000000000        2.0000328142990069        2.0000328142990069        0.0000000000000000        1.0000000000000000     
  -1.5625000000000000E-002  0.70312500000000000        2.0000139228139688        2.0000139228139688        0.0000000000000000        1.0000000000000000     
  -1.5625000000000000E-002  0.73437500000000000        2.0000059078303289        2.0000059078303289        0.0000000000000000        1.0000000000000000     
  -1.5625000000000000E-002  0.76562500000000000        2.0000025070401835        2.0000025070401835        0.0000000000000000        1.0000000000000000     
  -1.5625000000000000E-002  0.79687500000000000        2.0000010637303758        2.0000010637303758        0.0000000000000000        1.0000000000000000     
  -1.5625000000000000E-002  0.82812500000000000        2.0000004510490386        2.0000004510490386        0.0000000000000000        1.0000000000000000     
  -1.5625000000000000E-002  0.85937500000000000        2.0000001909136542        2.0000001909136542        0.0000000000000000        1.0000000000000000     
  -1.5625000000000000E-002  0.89062500000000000        2.0000000801652562        2.0000000801652562        0.0000000000000000        1.0000000000000000     
  -1.5625000000000000E-002  0.92187500000000000        2.0000000325742930        2.0000000325742930        0.0000000000000000        1.0000000000000000     
  -1.5625000000000000E-002  0.95312500000000000        2.0000000120131203        2.0000000120131203        0.0000000000000000        1.0000000000000000     
  -1.5625000000000000E-002  0.98437500000000000        2.0000000030766745        2.0000000030766745        0.0000000000000000        1.0000000000000000     
  -1.5625000000000000E-002   1.0156250000000000        2.0000000000000000        2.0000000000000000        0.0000000000000000        1.0000000000000000     
   1.5625000000000000E-002  -1.5625000000000000E-002   3.1213377345622280        3.1213377345622280        1.0000000000000000        0.0000000000000000     
   1.5625000000000000E-002   1.5625000000000000E-002   2.8786622654377720        2.8786622654377720        1.0000000000000000        0.0000000000000000     
   1.5625000000000000E-002   4.6875000000000000E-002   2.7046322859369516        2.7046322859369516        1.0000000000000000        0.0000000000000000     
   1.5625000000000000E-002   7.8125000000000000E-002   2.5856517048760392        2.5856517048760392        1.0000000000000000        0.0000000000000000     
   1.5625000000000000E-002  0.10937500000000000        2.5124251623206719        2.5124251623206719        1.0000000000000000        0.0000000000000000     
   1.5625000000000000E-002  0.14062500000000000        2.4792318345753022        2.4792318345753022        1.0000000000000000        0.0000000000000000     
   1.5625000000000000E-002  0.17187500000000000        2.4834784948700745        2.4834784948700745        1.0000000000000000        0.0000000000000000     
   1.5625000000000000E-002  0.20312500000000000        2.5254969135604415        2.5254969135604415        1.0000000000000000        0.0000000000000000     
   1.5625000000000000E-002  0.23437500000000000        2.6085697777930310        2.6085697777930310        1.0000000000000000        0.0000000000000000     
   1.5625000000000000E-002  0.26562500000000000        2.7391871553637137        2.7391871553637137        1.0000000000000000        0.0000000000000000     
   1.5625000000000000E-002  0.29687500000000000        2.8898802558454735        2.7979659735026341       0.60000000000000031       0.39999999999999963     
   1.5625000000000000E-002  0.32812500000000000        2.4092375538551369        2.4092375538551369        0.0000000000000000        1.0000000000000000     
   1.5625000000000000E-002  0.35937500000000000        2.1736280829018435        2.1736280829018435        0.0000000000000000        1.0000000000000000     
   1.5625000000000000E-002  0.39062500000000000        2.0736655544267850        2.0736655544267850        0.0000000000000000        1.0000000000000000     
   1.5625000000000000E-002  0.42187500000000000        2.0312542410296097        2.0312542410296097        0.0000000000000000        1.0000000000000000     
   1.5625000000000000E-002  0.45312500000000000        2.0132603033939072        2.0132603033939072        0.0000000000000000        1.0000000000000000     
   1.5625000000000000E-002  0.48437500000000000        2.0056259777000403        2.0056259777000403        0.0000000000000000        1.0000000000000000     
   1.5625000000000000E-002  0.51562500000000000        2.0023869463077300        2.0023869463077300        0.0000000000000000        1.0000000000000000     
   1.5625000000000000E-002  0.54687500000000000        2.0010127151590837        2.0010127151590837        0.0000000000000000        1.0000000000000000     
   1.5625000000000000E-002  0.57812500000000000        2.0004296665109731        2.0004296665109731        0.0000000000000000        1.0000000000000000     
   1.5625000000000000E-002  0.60937500000000000        2.0001822948939814        2.0001822948939814        0.0000000000000000        1.0000000000000000     
   1.5625000000000000E-002  0.64062500000000000        2.0000773422425517        2.0000773422425517        0.0000000000000000        1.0000000000000000     
   1.5625000000000000E-002  0.67187500000000000        2.0000328142990069        2.0000328142990069        0.0000000000000000        1.0000000000000000     
   1.5625000000000000E-002  0.70312500000000000        2.0000139228139688        2.0000139228139688        0.0000000000000000        1.0000000000000000     
   1.5625000000000000E-002  0.73437500000000000        2.0000059078303289        2.0000059078303289        0.0000000000000000        1.0000000000000000     
   1.5625000000000000E-002  0.76562500000000000        2.0000025070401835        2.0000025070401835        0.0000000000000000        1.0000000000000000     
   1.5625000000000000E-002  0.79687500000000000        2.0000010637303758        2.0000010637303758        0.0000000000000000        1.0000000000000000     
   1.5625000000000000E-002  0.82812500000000000        2.0000004510490386        2.0000004510490386        0.0000000000000000        1.0000000000000000     
   1.5625000000000000E-002  0.85937500000000000        2.0000001909136542        2.0000001909136542        0.0000000000000000        1.0000000000000000     
   1.5625000000000000E-002  0.89062500000000000        2.0000000801652562        2.0000000801652562        0.0000000000000000        1.0000000000000000     
   1.5625000000000000E-002  0.92187500000000000        2.0000000325742930        2.0000000325742930        0.0000000000000000        1.0000000000000000     
   1.5625000000000000E-002  0.95312500000000000        2.0000000120131203        2.0000000120131203        0.0000000000000000        1.0000000000000000     
   1.5625000000000000E-002  0.98437500000000000        2.0000000030766745        2.0000000030766745        0.0000000000000000        1.0000000000000000     
   1.5625000000000000E-002   1.0156250000000000        1.9999999969233255        1.9999999969233255        0.0000000000000000        1.0000000000000000     
   4.6875000000000000E-002  -1.5625000000000000E-002   3.1213377345622280        3.1213377345622280        1.0000000000000000        0.0000000000000000     
   4.6875000000000000E-002   1.5625000000000000E-002   2.8786622654377720        2.8786622654377720        1.0000000000000000        0.0000000000000000     
   4.6875000000000000E-002   4.6875000000000000E-002   2.7046322859369516        2.7046322859369516        1.0000000000000000        0.0000000000000000     
   4.6875000000000000E-002   7.8125000000000000E-002   2.5856517048760392        2.5856517048760392        1.0000000000000000        0.0000000000000000     
   4.6875000000000000E-002  0.10937500000000000        2.5124251623206719        2.5124251623206719        1.0000000000000000        0.0000000000000000     
   4.6875000000000000E-002  0.14062500000000000        2.4792318345753022        2.4792318345753022        1.0000000000000000        0.0000000000000000     
   4.6875000000000000E-002  0.17187500000000000        2.4834784948700745        2.4834784948700745        1.0000000000000000        0.0000000000000000     
   4.6875000000000000E-002  0.20312500000000000        2.5254969135604415        2.5254969135604415        1.0000000000000000        0.0000000000000000     
   4.6875000000000000E-002  0.23437500000000000        2.6085697777930310        2.6085697777930310        1.0000000000000000        0.0000000000000000     
   4.6875000000000000E-002  0.26562500000000000        2.7391871553637137        2.7391871553637137        1.0000000000000000        0.0000000000000000     
   4.6875000000000000E-002  0.29687500000000000        2.8898802558454753        2.7979659735026368       0.60000000000000031       0.39999999999999963     
   4.6875000000000000E-002  0.32812500000000000        2.4092375538551369        2.4092375538551369        0.0000000000000000        1.0000000000000000     
   4.6875000000000000E-002  0.35937500000000000        2.1736280829018435        2.1736280829018435        0.0000000000000000        1.0000000000000000     
   4.6875000000000000E-002  0.39062500000000000        2.0736655544267850        2.0736655544267850        0.0000000000000000        1.0000000000000000     
   4.6875000000000000E-002  0.42187500000000000        2.0312542410296097        2.0312542410296097        0.0000000000000000        1.0000000000000000     
   4.6875000000000000E-002  0.45312500000000000        2.0132603033939072        2.0132603033939072        0.0000000000000000        1.0000000000000000     
   4.6875000000000000E-002  0.48437500000000000        2.0056259777000403        2.0056259777000403        0.0000000000000000        1.0000000000000000     
   4.6875000000000000E-002  0.51562500000000000        2.0023869463077300        2.0023869463077300        0.0000000000000000        1.0000000000000000     
   4.6875000000000000E-002  0.54687500000000000        2.0010127151590837        2.0010127151590837        0.0000000000000000        1.0000000000000000     
   4.6875000000000000E-002  0.57812500000000000        2.0004296665109731        2.0004296665109731        0.0000000000000000        1.0000000000000000     
   4.6875000000000000E-002  0.60937500000000000        2.0001822948939814        2.0001822948939814        0.0000000000000000        1.0000000000000000     
   4.6875000000000000E-002  0.64062500000000000        2.0000773422425517        2.0000773422425517        0.0000000000000000        1.0000000000000000     
   4.6875000000000000E-002  0.67187500000000000        2.0000328142990069        2.0000328142990069        0.0000000000000000        1.0000000000000000     
   4.6875000000000000E-002  0.70312500000000000        2.0000139228139688        2.0000139228139688        0.0000000000000000        1.0000000000000000     
   4.6875000000000000E-002  0.73437500000000000        2.0000059078303289        2.0000059078303289        0.0000000000000000        1.0000000000000000     
   4.6875000000000000E-002  0.76562500000000000        2.0000025070401835        2.0000025070401835        0.0000000000000000        1.0000000000000000     
   4.6875000000000000E-002  0.79687500000000000        2.0000010637303758        2.0000010637303758        0.0000000000000000        1.0000000000000000     
   4.6875000000000000E-002  0.82812500000000000        2.0000004510490386        2.0000004510490386        0.0000000000000000        1.0000000000000000     
   4.6875000000000000E-002  0.85937500000000000        2.0000001909136542        2.0000001909136542        0.0000000000000000        1.0000000000000000     
   4.6875000000000000E-002  0.89062500000000000        2.0000000801652562        2.0000000801652562        0.0000000000000000        1.0000000000000000     
   4.6875000000000000E-002  0.92187500000000000        2.0000000325742930        2.0000000325742930        0.0000000000000000        1.0000000000000000     
   4.6875000000000000E-002  0.95312500000000000        2.0000000120131203        2.0000000120131203        0.0000000000000000        1.0000000000000000     
   4.6875000000000000E-002  0.98437500000000000        2.0000000030766745        2.0000000030766745        0.0000000000000000        1.0000000000000000     
   4.6875000000000000E-002   1.0156250000000000        1.9999999969233255        1.9999999969233255        0.0000000000000000        1.0000000000000000     
   7.8125000000000000E-002  -1.5625000000000000E-002   3.1213377345622280        3.1213377345622280        1.0000000000000000        0.0000000000000000     
   7.8125000000000000E-002   1.5625000000000000E-002   2.8786622654377720        2.8786622654377720        1.0000000000000000        0.0000000000000000     
   7.8125000000000000E-002   4.6875000000000000E-002   2.7046322859369516        2.7046322859369516        1.0000000000000000        0.0000000000000000     
   7.8125000000000000E-002   7.8125000000000000E-002   2.5856517048760388        2.5856517048760388        1.0000000000000000        0.0000000000000000     
   7.8125000000000000E-002  0.10937500000000000        2.5124251623206719        2.5124251623206719        1.0000000000000000        0.0000000000000000     
   7.8125000000000000E-002  0.14062500000000000        2.4792318345753022        2.4792318345753022        1.0000000000000000        0.0000000000000000     
   7.8125000000000000E-002  0.17187500000000000        2.4834784948700745        2.4834784948700745        1.0000000000000000        0.0000000000000000     
   7.8125000000000000E-002  0.20312500000000000        2.5254969135604415        2.5254969135604415        1.0000000000000000        0.0000000000000000     
   7.8125000000000000E-002  0.23437500000000000        2.6085697777930310        2.6085697777930310        1.0000000000000000        0.0000000000000000     
   7.8125000000000000E-002  0.26562500000000000        2.7391871553637137        2.7391871553637137        1.0000000000000000        0.0000000000000000     
   7.8125000000000000E-002  0.29687500000000000        2.8898802558454775        2.7979659735026439       0.60000000000000031       0.39999999999999963     
   7.8125000000000000E-002  0.32812500000000000        2.4092375538551369        2.4092375538551369        0.0000000000000000        1.0000000000000000     
   7.8125000000000000E-002  0.35937500000000000        2.1736280829018435        2.1736280829018435        0.0000000000000000        1.0000000000000000     
   7.8125000000000000E-002  0.39062500000000000        2.0736655544267850        2.0736655544267850        0.0000000000000000        1.0000000000000000     
   7.8125000000000000E-002  0.42187500000000000        2.0312542410296097        2.0312542410296097        0.0000000000000000        1.0000000000000000     
   7.8125000000000000E-002  0.45312500000000000        2.0132603033939072        2.0132603033939072        0.0000000000000000        1.0000000000000000     
   7.8125000000000000E-002  0.48437500000000000        2.0056259777000403        2.0056259777000403        0.0000000000000000        1.0000000000000000     
   7.8125000000000000E-002  0.51562500000000000        2.0023869463077300        2.0023869463077300        0.0000000000000000        1.0000000000000000     
   7.8125000000000000E-002  0.54687500000000000        2.0010127151590837        2.0010127151590837        0.0000000000000000        1.0000000000000000     
   7.8125000000000000E-002  0.57812500000000000        2.0004296665109731        2.0004296665109731        0.0000000000000000        1.0000000000000000     
   7.8125000000000000E-002  0.60937500000000000        2.0001822948939814        2.0001822948939814        0.0000000000000000        1.0000000000000000     
   7.8125000000000000E-002  0.64062500000000000        2.0000773422425517        2.0000773422425517        0.0000000000000000        1.0000000000000000     
   7.8125000000000000E-002  0.67187500000000000        2.0000328142990069        2.0000328142990069        0.0000000000000000        1.0000000000000000     
   7.8125000000000000E-002  0.70312500000000000        2.0000139228139688        2.0000139228139688        0.0000000000000000        1.0000000000000000     
   7.8125000000000000E-002  0.73437500000000000        2.0000059078303289        2.0000059078303289        0.0000000000000000        1.0000000000000000     
   7.8125000000000000E-002  0.76562500000000000        2.0000025070401835        2.0000025070401835        0.0000000000000000        1.0000000000000000     
   7.8125000000000000E-002  0.79687500000000000        2.0000010637303758        2.0000010637303758        0.0000000000000000        1.0000000000000000     
   7.8125000000000000E-002  0.82812500000000000        2.0000004510490386        2.0000004510490386        0.0000000000000000        1.0000000000000000     
   7.8125000000000000E-002  0.85937500000000000        2.0000001909136542        2.0000001909136542        0.0000000000000000        1.0000000000000000     
   7.8125000000000000E-002  0.89062500000000000        2.0000000801652562        2.0000000801652562        0.0000000000000000        1.0000000000000000     
   7.8125000000000000E-002  0.92187500000000000        2.0000000325742930        2.0000000325742930        0.0000000000000000        1.0000000000000000     
   7.8125000000000000E-002  0.95312500000000000        2.0000000120131203        2.0000000120131203        0.0000000000000000        1.0000000000000000     
   7.8125000000000000E-002  0.98437500000000000        2.0000000030766745        2.0000000030766745        0.0000000000000000        1.0000000000000000     
   7.8125000000000000E-002   1.0156250000000000        1.9999999969233255        1.9999999969233255        0.0000000000000000        1.0000000000000000     
  0.10937500000000000       -1.5625000000000000E-002   3.1213377345622280        3.1213377345622280        1.0000000000000000        0.0000000000000000     
  0.10937500000000000        1.5625000000000000E-002   2.8786622654377720        2.8786622654377720        1.0000000000000000        0.0000000000000000     
  0.10937500000000000        4.6875000000000000E-002   2.7046322859369516        2.7046322859369516        1.0000000000000000        0.0000000000000000     
  0.10937500000000000        7.8125000000000000E-002   2.5856517048760388        2.5856517048760388        1.0000000000000000        0.0000000000000000     
  0.10937500000000000       0.10937500000000000        2.5124251623206719        2.5124251623206719        1.0000000000000000        0.0000000000000000     
  0.10937500000000000       0.14062500000000000        2.4792318345753022        2.4792318345753022        1.0000000000000000        0.0000000000000000     
  0.10937500000000000       0.17187500000000000        2.4834784948700741        2.4834784948700741        1.0000000000000000        0.0000000000000000     
  0.10937500000000000       0.20312500000000000        2.5254969135604415        2.5254969135604415        1.0000000000000000        0.0000000000000000     
  0.10937500000000000       0.23437500000000000        2.6085697777930306        2.6085697777930306        1.0000000000000000        0.0000000000000000     
  0.10937500000000000       0.26562500000000000        2.7391871553637137        2.7391871553637137        1.0000000000000000        0.0000000000000000     
  0.10937500000000000       0.29687500000000000        2.8898802558454739        2.7979659735026230       0.60000000000000031       0.39999999999999963     
  0.10937500000000000       0.32812500000000000        2.4092375538551365        2.4092375538551365        0.0000000000000000        1.0000000000000000     
  0.10937500000000000       0.35937500000000000        2.1736280829018435        2.1736280829018435        0.0000000000000000        1.0000000000000000     
  0.10937500000000000       0.39062500000000000        2.0736655544267850        2.0736655544267850        0.0000000000000000        1.0000000000000000     
  0.10937500000000000       0.42187500000000000        2.0312542410296097        2.0312542410296097        0.0000000000000000        1.0000000000000000     
  0.10937500000000000       0.45312500000000000        2.0132603033939072        2.0132603033939072        0.0000000000000000        1.0000000000000000     
  0.10937500000000000       0.48437500000000000        2.0056259777000403        2.0056259777000403        0.0000000000000000        1.0000000000000000     
  0.10937500000000000       0.51562500000000000        2.0023869463077300        2.0023869463077300        0.0000000000000000        1.0000000000000000     
  0.10937500000000000       0.54687500000000000        2.0010127151590837        2.0010127151590837        0.0000000000000000        1.0000000000000000     
  0.10937500000000000       0.57812500000000000        2.0004296665109731        2.0004296665109731        0.0000000000000000        1.0000000000000000     
  0.10937500000000000       0.60937500000000000        2.0001822948939814        2.0001822948939814        0.0000000000000000        1.0000000000000000     
  0.10937500000000000       0.64062500000000000        2.0000773422425517        2.0000773422425517        0.0000000000000000        1.0000000000000000     
  0.10937500000000000       0.67187500000000000        2.0000328142990069        2.0000328142990069        0.0000000000000000        1.0000000000000000     
  0.10937500000000000       0.70312500000000000        2.0000139228139688        2.0000139228139688        0.0000000000000000        1.0000000000000000     
  0.10937500000000000       0.73437500000000000        2.0000059078303289        2.0000059078303289        0.0000000000000000        1.0000000000000000     
  0.10937500000000000       0.76562500000000000        2.0000025070401835        2.0000025070401835        0.0000000000000000        1.0000000000000000     
  0.10937500000000000       0.79687500000000000        2.0000010637303758        2.0000010637303758        0.0000000000000000        1.0000000000000000     
  0.10937500000000000       0.82812500000000000        2.0000004510490386        2.0000004510490386        0.0000000000000000        1.0000000000000000     
  0.10937500000000000       0.85937500000000000        2.0000001909136542        2.0000001909136542        0.0000000000000000        1.0000000000000000     
  0.10937500000000000       0.89062500000000000        2.0000000801652562        2.0000000801652562        0.0000000000000000        1.0000000000000000     
  0.10937500000000000       0.92187500000000000        2.0000000325742930        2.0000000325742930        0.0000000000000000        1.0000000000000000     
  0.10937500000000000       0.95312500000000000        2.0000000120131203        2.0000000120131203        0.0000000000000000        1.0000000000000000     
  0.10937500000000000       0.98437500000000000        2.0000000030766745        2.0000000030766745        0.0000000000000000        1.0000000000000000     
  0.10937500000000000        1.0156250000000000        1.9999999969233255        1.9999999969233255        0.0000000000000000        1.0000000000000000     
  0.14062500000000000       -1.5625000000000000E-002   3.1213377345622280        3.1213377345622280        1.0000000000000000        0.0000000000000000     
  0.14062500000000000        1.5625000000000000E-002   2.8786622654377720        2.8786622654377720        1.0000000000000000        0.0000000000000000     
  0.14062500000000000        4.6875000000000000E-002   2.7046322859369516        2.7046322859369516        1.0000000000000000        0.0000000000000000     
  0.14062500000000000        7.8125000000000000E-002   2.5856517048760388        2.5856517048760388        1.0000000000000000        0.0000000000000000     
  0.14062500000000000       0.10937500000000000        2.5124251623206719        2.5124251623206719        1.0000000000000000        0.0000000000000000     
  0.14062500000000000       0.14062500000000000        2.4792318345753017        2.4792318345753017        1.0000000000000000        0.0000000000000000     
  0.14062500000000000       0.17187500000000000        2.4834784948700741        2.4834784948700741        1.0000000000000000        0.0000000000000000     
  0.14062500000000000       0.20312500000000000        2.5254969135604410        2.5254969135604410        1.0000000000000000        0.0000000000000000     
  0.14062500000000000       0.23437500000000000        2.6085697777930306        2.6085697777930306        1.0000000000000000        0.0000000000000000     
  0.14062500000000000       0.26562500000000000        2.7391871553637133        2.7391871553637133        1.0000000000000000        0.0000000000000000     
  0.14062500000000000       0.29687500000000000        2.8898802558454744        2.7979659735026239       0.60000000000000031       0.39999999999999963     
  0.14062500000000000       0.32812500000000000        2.4092375538551369        2.4092375538551369        0.0000000000000000        1.0000000000000000     
  0.14062500000000000       0.35937500000000000        2.1736280829018439        2.1736280829018439        0.0000000000000000        1.0000000000000000     
  0.14062500000000000       0.39062500000000000        2.0736655544267850        2.0736655544267850        0.0000000000000000        1.0000000000000000     
  0.14062500000000000       0.42187500000000000        2.0312542410296097        2.0312542410296097        0.0000000000000000        1.0000000000000000     
  0.14062500000000000       0.45312500000000000        2.0132603033939072        2.0132603033939072        0.0000000000000000        1.0000000000000000     
  0.14062500000000000       0.48437500000000000        2.0056259777000403        2.0056259777000403        0.0000000000000000        1.0000000000000000     
  0.14062500000000000       0.51562500000000000        2.0023869463077300        2.0023869463077300        0.0000000000000000        1.0000000000000000     
  0.14062500000000000       0.54687500000000000        2.0010127151590837        2.0010127151590837        0.0000000000000000        1.0000000000000000     
  0.14062500000000000       0.57812500000000000        2.0004296665109731        2.0004296665109731        0.0000000000000000        1.0000000000000000     