 VARIABLES="X","Y","U1","U2","F1","F2"
 zone i=          10  j=          10  f=point
 SOLUTIONTIME=   0.0000000000000000       STRANDID=           1
  -6.2500000000000000E-002  -6.2500000000000000E-002   2.0000000000000000        2.0000000000000000        1.0000000000000000        0.0000000000000000     
  -6.2500000000000000E-002   6.2500000000000000E-002   2.0000000000000000        2.0000000000000000        1.0000000000000000        0.0000000000000000     
  -6.2500000000000000E-002  0.18750000000000000        2.0000000000000000        2.0000000000000000        1.0000000000000000        0.0000000000000000     
  -6.2500000000000000E-002  0.31250000000000000        2.0000000000000000        0.0000000000000000       0.40000000000000019       0.59999999999999987     
  -6.2500000000000000E-002  0.43750000000000000        0.0000000000000000        0.0000000000000000        0.0000000000000000        1.0000000000000000     
  -6.2500000000000000E-002  0.56250000000000000        0.0000000000000000        0.0000000000000000        0.0000000000000000        1.0000000000000000     
  -6.2500000000000000E-002  0.68750000000000000        0.0000000000000000        0.0000000000000000        0.0000000000000000        1.0000000000000000     
  -6.2500000000000000E-002  0.81250000000000000        0.0000000000000000        0.0000000000000000        0.0000000000000000        1.0000000000000000     
  -6.2500000000000000E-002  0.93750000000000000        0.0000000000000000        0.0000000000000000        0.0000000000000000        1.0000000000000000     
  -6.2500000000000000E-002   1.0625000000000000        0.0000000000000000        0.0000000000000000        0.0000000000000000        1.0000000000000000     
   6.2500000000000000E-002  -6.2500000000000000E-002   4.0000000000000000        4.0000000000000000        1.0000000000000000        0.0000000000000000     
   6.2500000000000000E-002   6.2500000000000000E-002   2.0000000000000000        2.0000000000000000        1.0000000000000000        0.0000000000000000     
   6.2500000000000000E-002  0.18750000000000000        2.0000000000000000        2.0000000000000000        1.0000000000000000        0.0000000000000000     
   6.2500000000000000E-002  0.31250000000000000        2.0000000000000000        0.0000000000000000       0.40000000000000019       0.59999999999999987     
   6.2500000000000000E-002  0.43750000000000000        0.0000000000000000        0.0000000000000000        0.0000000000000000        1.0000000000000000     
   6.2500000000000000E-002  0.56250000000000000        0.0000000000000000        0.0000000000000000        0.0000000000000000        1.0000000000000000     
   6.2500000000000000E-002  0.68750000000000000        0.0000000000000000        0.0000000000000000        0.0000000000000000        1.0000000000000000     
   6.2500000000000000E-002  0.81250000000000000        0.0000000000000000        0.0000000000000000        0.0000000000000000        1.0000000000000000     
   6.2500000000000000E-002  0.93750000000000000        0.0000000000000000        0.0000000000000000        0.0000000000000000        1.0000000000000000     
   6.2500000000000000E-002   1.0625000000000000        0.0000000000000000        0.0000000000000000        0.0000000000000000        1.0000000000000000     
  0.18750000000000000       -6.2500000000000000E-002   4.0000000000000000        4.0000000000000000        1.0000000000000000        0.0000000000000000     
  0.18750000000000000        6.2500000000000000E-002   2.0000000000000000        2.0000000000000000        1.0000000000000000        0.0000000000000000     
  0.18750000000000000       0.18750000000000000        2.0000000000000000        2.0000000000000000        1.0000000000000000        0.0000000000000000     
  0.18750000000000000       0.31250000000000000        2.0000000000000000        0.0000000000000000       0.40000000000000019       0.59999999999999987     
  0.18750000000000000       0.43750000000000000        0.0000000000000000        0.0000000000000000        0.0000000000000000        1.0000000000000000     
  0.18750000000000000       0.56250000000000000        0.0000000000000000        0.0000000000000000        0.0000000000000000        1.0000000000000000     
  0.18750000000000000       0.68750000000000000        0.0000000000000000        0.0000000000000000        0.0000000000000000        1.0000000000000000     
  0.18750000000000000       0.81250000000000000        0.0000000000000000        0.0000000000000000        0.0000000000000000        1.0000000000000000     
  0.18750000000000000       0.93750000000000000        0.0000000000000000        0.0000000000000000        0.0000000000000000        1.0000000000000000     
  0.18750000000000000        1.0625000000000000        0.0000000000000000        0.0000000000000000        0.0000000000000000        1.0000000000000000     
  0.31250000000000000       -6.2500000000000000E-002   4.0000000000000000        4.0000000000000000        1.0000000000000000        0.0000000000000000     
  0.31250000000000000        6.2500000000000000E-002   2.0000000000000000        2.0000000000000000        1.0000000000000000        0.0000000000000000     
  0.31250000000000000       0.18750000000000000        2.0000000000000000        2.0000000000000000        1.0000000000000000        0.0000000000000000     
  0.31250000000000000       0.31250000000000000        2.0000000000000000        0.0000000000000000       0.40000000000000019       0.59999999999999987     
  0.31250000000000000       0.43750000000000000        0.0000000000000000        0.0000000000000000        0.0000000000000000        1.0000000000000000     
  0.31250000000000000       0.56250000000000000        0.0000000000000000        0.0000000000000000        0.0000000000000000        1.0000000000000000     
  0.31250000000000000       0.68750000000000000        0.0000000000000000        0.0000000000000000        0.0000000000000000        1.0000000000000000     
  0.31250000000000000       0.81250000000000000        0.0000000000000000        0.0000000000000000        0.0000000000000000        1.0000000000000000     
  0.31250000000000000       0.93750000000000000        0.0000000000000000        0.0000000000000000        0.0000000000000000        1.0000000000000000     
  0.31250000000000000        1.0625000000000000        0.0000000000000000        0.0000000000000000        0.0000000000000000        1.0000000000000000     
  0.43750000000000000       -6.2500000000000000E-002   4.0000000000000000        4.0000000000000000        1.0000000000000000        0.0000000000000000     
  0.43750000000000000        6.2500000000000000E-002   2.0000000000000000        2.0000000000000000        1.0000000000000000        0.0000000000000000     
  0.43750000000000000       0.18750000000000000        2.0000000000000000        2.0000000000000000        1.0000000000000000        0.0000000000000000     
  0.43750000000000000       0.31250000000000000        2.0000000000000000        0.0000000000000000       0.40000000000000019       0.59999999999999987     
  0.43750000000000000       0.43750000000000000        0.0000000000000000        0.0000000000000000        0.0000000000000000        1.0000000000000000     
  0.43750000000000000       0.56250000000000000        0.0000000000000000        0.0000000000000000        0.0000000000000000        1.0000000000000000     
  0.43750000000000000       0.68750000000000000        0.0000000000000000        0.0000000000000000        0.0000000000000000        1.0000000000000000     
  0.43750000000000000       0.81250000000000000        0.0000000000000000        0.0000000000000000        0.0000000000000000        1.0000000000000000     
  0.43750000000000000       0.93750000000000000        0.0000000000000000        0.0000000000000000        0.0000000000000000        1.0000000000000000     
  0.43750000000000000        1.0625000000000000        0.0000000000000000        0.0000000000000000        0.0000000000000000        1.0000000000000000     
  0.56250000000000000       -6.2500000000000000E-002   4.0000000000000000        4.0000000000000000        1.0000000000000000        0.0000000000000000     
  0.56250000000000000        6.2500000000000000E-002   2.0000000000000000        2.0000000000000000        1.0000000000000000        0.0000000000000000     
  0.56250000000000000       0.18750000000000000        2.0000000000000000        2.0000000000000000        1.0000000000000000        0.0000000000000000     
  0.56250000000000000       0.31250000000000000        2.0000000000000000        0.0000000000000000       0.40000000000000019       0.59999999999999987     
  0.56250000000000000       0.43750000000000000        0.0000000000000000        0.0000000000000000        0.0000000000000000        1.0000000000000000     
  0.56250000000000000       0.56250000000000000        0.0000000000000000        0.0000000000000000        0.0000000000000000        1.0000000000000000     
  0.56250000000000000       0.68750000000000000        0.0000000000000000        0.0000000000000000        0.0000000000000000        1.0000000000000000     
  0.56250000000000000       0.81250000000000000        0.0000000000000000        0.0000000000000000        0.0000000000000000        1.0000000000000000     
  0.56250000000000000       0.93750000000000000        0.0000000000000000        0.0000000000000000        0.0000000000000000        1.0000000000000000     
  0.56250000000000000        1.0625000000000000        0.0000000000000000        0.0000000000000000        0.0000000000000000        1.0000000000000000     
  0.68750000000000000       -6.2500000000000000E-002   4.0000000000000000        4.0000000000000000        1.0000000000000000        0.0000000000000000     
  0.68750000000000000        6.2500000000000000E-002   2.0000000000000000        2.0000000000000000        1.0000000000000000        0.0000000000000000     
  0.68750000000000000       0.18750000000000000        2.0000000000000000        2.0000000000000000        1.0000000000000000        0.0000000000000000     
  0.68750000000000000       0.31250000000000000        2.0000000000000000        0.0000000000000000       0.39999999999999986       0.60000000000000020     
  0.68750000000000000       0.43750000000000000        0.0000000000000000        0.0000000000000000        0.0000000000000000        1.0000000000000000     
  0.68750000000000000       0.56250000000000000        0.0000000000000000        0.0000000000000000        0.0000000000000000        1.0000000000000000     
  0.68750000000000000       0.68750000000000000        0.0000000000000000        0.0000000000000000        0.0000000000000000        1.0000000000000000     
  0.68750000000000000       0.81250000000000000        0.0000000000000000        0.0000000000000000        0.0000000000000000        1.0000000000000000     
  0.68750000000000000       0.93750000000000000        0.0000000000000000        0.0000000000000000        0.0000000000000000        1.0000000000000000     
  0.68750000000000000        1.0625000000000000        0.0000000000000000        0.0000000000000000        0.0000000000000000        1.0000000000000000     
  0.81250000000000000       -6.2500000000000000E-002   4.0000000000000000        4.0000000000000000        1.0000000000000000        0.0000000000000000     
  0.81250000000000000        6.2500000000000000E-002   2.0000000000000000        2.0000000000000000        1.0000000000000000        0.0000000000000000     
  0.81250000000000000       0.18750000000000000        2.0000000000000000        2.0000000000000000        1.0000000000000000        0.0000000000000000     
  0.81250000000000000       0.31250000000000000        2.0000000000000000        0.0000000000000000       0.39999999999999986       0.60000000000000020     
  0.81250000000000000       0.43750000000000000        0.0000000000000000        0.0000000000000000        0.0000000000000000        1.0000000000000000     
  0.81250000000000000       0.56250000000000000        0.0000000000000000        0.0000000000000000        0.0000000000000000        1.0000000000000000     
  0.81250000000000000       0.68750000000000000        0.0000000000000000        0.0000000000000000        0.0000000000000000        1.0000000000000000     
  0.81250000000000000       0.81250000000000000        0.0000000000000000        0.0000000000000000        0.0000000000000000        1.0000000000000000     
  0.81250000000000000       0.93750000000000000        0.0000000000000000        0.0000000000000000        0.0000000000000000        1.0000000000000000     
  0.81250000000000000        1.0625000000000000        0.0000000000000000        0.0000000000000000        0.0000000000000000        1.0000000000000000     
  0.93750000000000000       -6.2500000000000000E-002   4.0000000000000000        4.0000000000000000        1.0000000000000000        0.0000000000000000     
  0.93750000000000000        6.2500000000000000E-002   2.0000000000000000        2.0000000000000000        1.0000000000000000        0.0000000000000000     
  0.93750000000000000       0.18750000000000000        2.0000000000000000        2.0000000000000000        1.0000000000000000        0.0000000000000000     
  0.93750000000000000       0.31250000000000000        2.0000000000000000        0.0000000000000000       0.39999999999999986       0.60000000000000020     
  0.93750000000000000       0.43750000000000000        0.0000000000000000        0.0000000000000000        0.0000000000000000        1.0000000000000000     
  0.93750000000000000       0.56250000000000000        0.0000000000000000        0.0000000000000000        0.0000000000000000        1.0000000000000000     
  0.93750000000000000       0.68750000000000000        0.0000000000000000        0.0000000000000000        0.0000000000000000        1.0000000000000000     
  0.93750000000000000       0.81250000000000000        0.0000000000000000        0.0000000000000000        0.0000000000000000        1.0000000000000000     
  0.93750000000000000       0.93750000000000000        0.0000000000000000        0.0000000000000000        0.0000000000000000        1.0000000000000000     
  0.93750000000000000        1.0625000000000000        0.0000000000000000        0.0000000000000000        0.0000000000000000        1.0000000000000000     
   1.0625000000000000       -6.2500000000000000E-002   2.0000000000000000        2.0000000000000000        1.0000000000000000        0.0000000000000000     
   1.0625000000000000        6.2500000000000000E-002   2.0000000000000000        2.0000000000000000        1.0000000000000000        0.0000000000000000     
   1.0625000000000000       0.18750000000000000        2.0000000000000000        2.0000000000000000        1.0000000000000000        0.0000000000000000     
   1.0625000000000000       0.31250000000000000        2.0000000000000000        0.0000000000000000       0.39999999999999986       0.60000000000000020     
   1.0625000000000000       0.43750000000000000        0.0000000000000000        0.0000000000000000        0.0000000000000000        1.0000000000000000     
   1.0625000000000000       0.56250000000000000        0.0000000000000000        0.0000000000000000        0.0000000000000000        1.0000000000000000     
   1.0625000000000000       0.68750000000000000        0.0000000000000000        0.0000000000000000        0.0000000000000000        1.0000000000000000     
   1.0625000000000000       0.81250000000000000        0.0000000000000000        0.0000000000000000        0.0000000000000000        1.0000000000000000     
   1.0625000000000000       0.93750000000000000        0.0000000000000000        0.0000000000000000        0.0000000000000000        1.0000000000000000     
   1.0625000000000000        1.0625000000000000        0.0000000000000000        0.0000000000000000        0.0000000000000000        1.0000000000000000     
