 VARIABLES="X","Y","U1","U2","F1","F2"
 zone i=          34  j=          34  f=point
 SOLUTIONTIME=   8.7500000000000008E-002  STRANDID=           8
  -1.5625000000000000E-002  -1.5625000000000000E-002   2.0000000000000000        2.0000000000000000        1.0000000000000000        0.0000000000000000     
  -1.5625000000000000E-002   1.5625000000000000E-002   2.9973562235085782        2.9973562235085782        1.0000000000000000        0.0000000000000000     
  -1.5625000000000000E-002   4.6875000000000000E-002   2.9921220683688841        2.9921220683688841        1.0000000000000000        0.0000000000000000     
  -1.5625000000000000E-002   7.8125000000000000E-002   2.9870424390472103        2.9870424390472103        1.0000000000000000        0.0000000000000000     
  -1.5625000000000000E-002  0.10937500000000000        2.9822020590603291        2.9822020590603291        1.0000000000000000        0.0000000000000000     
  -1.5625000000000000E-002  0.14062500000000000        2.9776602687257769        2.9776602687257769        1.0000000000000000        0.0000000000000000     
  -1.5625000000000000E-002  0.17187500000000000        2.9734447386440972        2.9734447386440972        1.0000000000000000        0.0000000000000000     
  -1.5625000000000000E-002  0.20312500000000000        2.9695485373377970        2.9695485373377970        1.0000000000000000        0.0000000000000000     
  -1.5625000000000000E-002  0.23437500000000000        2.9659308684963848        2.9659308684963848        1.0000000000000000        0.0000000000000000     
  -1.5625000000000000E-002  0.26562500000000000        2.9625213991097241        2.9625213991097241        1.0000000000000000        0.0000000000000000     
  -1.5625000000000000E-002  0.29687500000000000        2.9598864511776410        2.9203354197263702       0.60000000000000031       0.39999999999999963     
  -1.5625000000000000E-002  0.32812500000000000        2.7861280279351477        2.7861280279351477        0.0000000000000000        1.0000000000000000     
  -1.5625000000000000E-002  0.35937500000000000        2.6067790716536039        2.6067790716536039        0.0000000000000000        1.0000000000000000     
  -1.5625000000000000E-002  0.39062500000000000        2.4502575041905139        2.4502575041905139        0.0000000000000000        1.0000000000000000     
  -1.5625000000000000E-002  0.42187500000000000        2.3219750422882601        2.3219750422882601        0.0000000000000000        1.0000000000000000     
  -1.5625000000000000E-002  0.45312500000000000        2.2225204384187660        2.2225204384187660        0.0000000000000000        1.0000000000000000     
  -1.5625000000000000E-002  0.48437500000000000        2.1490775679463781        2.1490775679463781        0.0000000000000000        1.0000000000000000     
  -1.5625000000000000E-002  0.51562500000000000        2.0970989955116957        2.0970989955116957        0.0000000000000000        1.0000000000000000     
  -1.5625000000000000E-002  0.54687500000000000        2.0616526669825728        2.0616526669825728        0.0000000000000000        1.0000000000000000     
  -1.5625000000000000E-002  0.57812500000000000        2.0382550562107724        2.0382550562107724        0.0000000000000000        1.0000000000000000     
  -1.5625000000000000E-002  0.60937500000000000        2.0232476310143386        2.0232476310143386        0.0000000000000000        1.0000000000000000     
  -1.5625000000000000E-002  0.64062500000000000        2.0138633433020017        2.0138633433020017        0.0000000000000000        1.0000000000000000     
  -1.5625000000000000E-002  0.67187500000000000        2.0081265438696723        2.0081265438696723        0.0000000000000000        1.0000000000000000     
  -1.5625000000000000E-002  0.70312500000000000        2.0046898005186407        2.0046898005186407        0.0000000000000000        1.0000000000000000     
  -1.5625000000000000E-002  0.73437500000000000        2.0026680682830262        2.0026680682830262        0.0000000000000000        1.0000000000000000     
  -1.5625000000000000E-002  0.76562500000000000        2.0014981073645628        2.0014981073645628        0.0000000000000000        1.0000000000000000     
  -1.5625000000000000E-002  0.79687500000000000        2.0008310311114688        2.0008310311114688        0.0000000000000000        1.0000000000000000     
  -1.5625000000000000E-002  0.82812500000000000        2.0004557213411558        2.0004557213411558        0.0000000000000000        1.0000000000000000     
  -1.5625000000000000E-002  0.85937500000000000        2.0002469881629601        2.0002469881629601        0.0000000000000000        1.0000000000000000     
  -1.5625000000000000E-002  0.89062500000000000        2.0001318566351398        2.0001318566351398        0.0000000000000000        1.0000000000000000     
  -1.5625000000000000E-002  0.92187500000000000        2.0000683214179102        2.0000683214179102        0.0000000000000000        1.0000000000000000     
  -1.5625000000000000E-002  0.95312500000000000        2.0000322605101775        2.0000322605101775        0.0000000000000000        1.0000000000000000     
  -1.5625000000000000E-002  0.98437500000000000        2.0000094458768425        2.0000094458768425        0.0000000000000000        1.0000000000000000     
  -1.5625000000000000E-002   1.0156250000000000        2.0000000000000000        2.0000000000000000        0.0000000000000000        1.0000000000000000     
   1.5625000000000000E-002  -1.5625000000000000E-002   3.0026437764914218        3.0026437764914218        1.0000000000000000        0.0000000000000000     
   1.5625000000000000E-002   1.5625000000000000E-002   2.9973562235085782        2.9973562235085782        1.0000000000000000        0.0000000000000000     
   1.5625000000000000E-002   4.6875000000000000E-002   2.9921220683688841        2.9921220683688841        1.0000000000000000        0.0000000000000000     
   1.5625000000000000E-002   7.8125000000000000E-002   2.9870424390472103        2.9870424390472103        1.0000000000000000        0.0000000000000000     
   1.5625000000000000E-002  0.10937500000000000        2.9822020590603291        2.9822020590603291        1.0000000000000000        0.0000000000000000     
   1.5625000000000000E-002  0.14062500000000000        2.9776602687257769        2.9776602687257769        1.0000000000000000        0.0000000000000000     
   1.5625000000000000E-002  0.17187500000000000        2.9734447386440972        2.9734447386440972        1.0000000000000000        0.0000000000000000     
   1.5625000000000000E-002  0.20312500000000000        2.9695485373377970        2.9695485373377970        1.0000000000000000        0.0000000000000000     
   1.5625000000000000E-002  0.23437500000000000        2.9659308684963848        2.9659308684963848        1.0000000000000000        0.0000000000000000     
   1.5625000000000000E-002  0.26562500000000000        2.9625213991097241        2.9625213991097241        1.0000000000000000        0.0000000000000000     
   1.5625000000000000E-002  0.29687500000000000        2.9598864511776410        2.9203354197263702       0.60000000000000031       0.39999999999999963     
   1.5625000000000000E-002  0.32812500000000000        2.7861280279351477        2.7861280279351477        0.0000000000000000        1.0000000000000000     
   1.5625000000000000E-002  0.35937500000000000        2.6067790716536039        2.6067790716536039        0.0000000000000000        1.0000000000000000     
   1.5625000000000000E-002  0.39062500000000000        2.4502575041905139        2.4502575041905139        0.0000000000000000        1.0000000000000000     
   1.5625000000000000E-002  0.42187500000000000        2.3219750422882601        2.3219750422882601        0.0000000000000000        1.0000000000000000     
   1.5625000000000000E-002  0.45312500000000000        2.2225204384187660        2.2225204384187660        0.0000000000000000        1.0000000000000000     
   1.5625000000000000E-002  0.48437500000000000        2.1490775679463781        2.1490775679463781        0.0000000000000000        1.0000000000000000     
   1.5625000000000000E-002  0.51562500000000000        2.0970989955116957        2.0970989955116957        0.0000000000000000        1.0000000000000000     
   1.5625000000000000E-002  0.54687500000000000        2.0616526669825728        2.0616526669825728        0.0000000000000000        1.0000000000000000     
   1.5625000000000000E-002  0.57812500000000000        2.0382550562107724        2.0382550562107724        0.0000000000000000        1.0000000000000000     
   1.5625000000000000E-002  0.60937500000000000        2.0232476310143386        2.0232476310143386        0.0000000000000000        1.0000000000000000     
   1.5625000000000000E-002  0.64062500000000000        2.0138633433020017        2.0138633433020017        0.0000000000000000        1.0000000000000000     
   1.5625000000000000E-002  0.67187500000000000        2.0081265438696723        2.0081265438696723        0.0000000000000000        1.0000000000000000     
   1.5625000000000000E-002  0.70312500000000000        2.0046898005186407        2.0046898005186407        0.0000000000000000        1.0000000000000000     
   1.5625000000000000E-002  0.73437500000000000        2.0026680682830262        2.0026680682830262        0.0000000000000000        1.0000000000000000     
   1.5625000000000000E-002  0.76562500000000000        2.0014981073645628        2.0014981073645628        0.0000000000000000        1.0000000000000000     
   1.5625000000000000E-002  0.79687500000000000        2.0008310311114688        2.0008310311114688        0.0000000000000000        1.0000000000000000     
   1.5625000000000000E-002  0.82812500000000000        2.0004557213411558        2.0004557213411558        0.0000000000000000        1.0000000000000000     
   1.5625000000000000E-002  0.85937500000000000        2.0002469881629601        2.0002469881629601        0.0000000000000000        1.0000000000000000     
   1.5625000000000000E-002  0.89062500000000000        2.0001318566351398        2.0001318566351398        0.0000000000000000        1.0000000000000000     
   1.5625000000000000E-002  0.92187500000000000        2.0000683214179102        2.0000683214179102        0.0000000000000000        1.0000000000000000     
   1.5625000000000000E-002  0.95312500000000000        2.0000322605101775        2.0000322605101775        0.0000000000000000        1.0000000000000000     
   1.5625000000000000E-002  0.98437500000000000        2.0000094458768425        2.0000094458768425        0.0000000000000000        1.0000000000000000     
   1.5625000000000000E-002   1.0156250000000000        1.9999905541231575        1.9999905541231575        0.0000000000000000        1.0000000000000000     
   4.6875000000000000E-002  -1.5625000000000000E-002   3.0026437764914222        3.0026437764914222        1.0000000000000000        0.0000000000000000     
   4.6875000000000000E-002   1.5625000000000000E-002   2.9973562235085778        2.9973562235085778        1.0000000000000000        0.0000000000000000     
   4.6875000000000000E-002   4.6875000000000000E-002   2.9921220683688836        2.9921220683688836        1.0000000000000000        0.0000000000000000     
   4.6875000000000000E-002   7.8125000000000000E-002   2.9870424390472103        2.9870424390472103        1.0000000000000000        0.0000000000000000     
   4.6875000000000000E-002  0.10937500000000000        2.9822020590603291        2.9822020590603291        1.0000000000000000        0.0000000000000000     
   4.6875000000000000E-002  0.14062500000000000        2.9776602687257769        2.9776602687257769        1.0000000000000000        0.0000000000000000     
   4.6875000000000000E-002  0.17187500000000000        2.9734447386440972        2.9734447386440972        1.0000000000000000        0.0000000000000000     
   4.6875000000000000E-002  0.20312500000000000        2.9695485373377970        2.9695485373377970        1.0000000000000000        0.0000000000000000     
   4.6875000000000000E-002  0.23437500000000000        2.9659308684963848        2.9659308684963848        1.0000000000000000        0.0000000000000000     
   4.6875000000000000E-002  0.26562500000000000        2.9625213991097241        2.9625213991097241        1.0000000000000000        0.0000000000000000     
   4.6875000000000000E-002  0.29687500000000000        2.9598864511776415        2.9203354197263711       0.60000000000000031       0.39999999999999963     
   4.6875000000000000E-002  0.32812500000000000        2.7861280279351477        2.7861280279351477        0.0000000000000000        1.0000000000000000     
   4.6875000000000000E-002  0.35937500000000000        2.6067790716536039        2.6067790716536039        0.0000000000000000        1.0000000000000000     
   4.6875000000000000E-002  0.39062500000000000        2.4502575041905139        2.4502575041905139        0.0000000000000000        1.0000000000000000     
   4.6875000000000000E-002  0.42187500000000000        2.3219750422882601        2.3219750422882601        0.0000000000000000        1.0000000000000000     
   4.6875000000000000E-002  0.45312500000000000        2.2225204384187660        2.2225204384187660        0.0000000000000000        1.0000000000000000     
   4.6875000000000000E-002  0.48437500000000000        2.1490775679463781        2.1490775679463781        0.0000000000000000        1.0000000000000000     
   4.6875000000000000E-002  0.51562500000000000        2.0970989955116957        2.0970989955116957        0.0000000000000000        1.0000000000000000     
   4.6875000000000000E-002  0.54687500000000000        2.0616526669825728        2.0616526669825728        0.0000000000000000        1.0000000000000000     
   4.6875000000000000E-002  0.57812500000000000        2.0382550562107724        2.0382550562107724        0.0000000000000000        1.0000000000000000     
   4.6875000000000000E-002  0.60937500000000000        2.0232476310143386        2.0232476310143386        0.0000000000000000        1.0000000000000000     
   4.6875000000000000E-002  0.64062500000000000        2.0138633433020017        2.0138633433020017        0.0000000000000000        1.0000000000000000     
   4.6875000000000000E-002  0.67187500000000000        2.0081265438696723        2.0081265438696723        0.0000000000000000        1.0000000000000000     
   4.6875000000000000E-002  0.70312500000000000        2.0046898005186407        2.0046898005186407        0.0000000000000000        1.0000000000000000     
   4.6875000000000000E-002  0.73437500000000000        2.0026680682830262        2.0026680682830262        0.0000000000000000        1.0000000000000000     
   4.6875000000000000E-002  0.76562500000000000        2.0014981073645628        2.0014981073645628        0.0000000000000000        1.0000000000000000     
   4.6875000000000000E-002  0.79687500000000000        2.0008310311114688        2.0008310311114688        0.0000000000000000        1.0000000000000000     
   4.6875000000000000E-002  0.82812500000000000        2.0004557213411558        2.0004557213411558        0.0000000000000000        1.0000000000000000     
   4.6875000000000000E-002  0.85937500000000000        2.0002469881629601        2.0002469881629601        0.0000000000000000        1.0000000000000000     
   4.6875000000000000E-002  0.89062500000000000        2.0001318566351398        2.0001318566351398        0.0000000000000000        1.0000000000000000     
   4.6875000000000000E-002  0.92187500000000000        2.0000683214179102        2.0000683214179102        0.0000000000000000        1.0000000000000000     
   4.6875000000000000E-002  0.95312500000000000        2.0000322605101775        2.0000322605101775        0.0000000000000000        1.0000000000000000     
   4.6875000000000000E-002  0.98437500000000000        2.0000094458768425        2.0000094458768425        0.0000000000000000        1.0000000000000000     
   4.6875000000000000E-002   1.0156250000000000        1.9999905541231575        1.9999905541231575        0.0000000000000000        1.0000000000000000     
   7.8125000000000000E-002  -1.5625000000000000E-002   3.0026437764914222        3.0026437764914222        1.0000000000000000        0.0000000000000000     
   7.8125000000000000E-002   1.5625000000000000E-002   2.9973562235085778        2.9973562235085778        1.0000000000000000        0.0000000000000000     
   7.8125000000000000E-002   4.6875000000000000E-002   2.9921220683688841        2.9921220683688841        1.0000000000000000        0.0000000000000000     
   7.8125000000000000E-002   7.8125000000000000E-002   2.9870424390472103        2.9870424390472103        1.0000000000000000        0.0000000000000000     
   7.8125000000000000E-002  0.10937500000000000        2.9822020590603291        2.9822020590603291        1.0000000000000000        0.0000000000000000     
   7.8125000000000000E-002  0.14062500000000000        2.9776602687257769        2.9776602687257769        1.0000000000000000        0.0000000000000000     
   7.8125000000000000E-002  0.17187500000000000        2.9734447386440972        2.9734447386440972        1.0000000000000000        0.0000000000000000     
   7.8125000000000000E-002  0.20312500000000000        2.9695485373377970        2.9695485373377970        1.0000000000000000        0.0000000000000000     
   7.8125000000000000E-002  0.23437500000000000        2.9659308684963848        2.9659308684963848        1.0000000000000000        0.0000000000000000     
   7.8125000000000000E-002  0.26562500000000000        2.9625213991097241        2.9625213991097241        1.0000000000000000        0.0000000000000000     
   7.8125000000000000E-002  0.29687500000000000        2.9598864511776410        2.9203354197263729       0.60000000000000031       0.39999999999999963     
   7.8125000000000000E-002  0.32812500000000000        2.7861280279351477        2.7861280279351477        0.0000000000000000        1.0000000000000000     
   7.8125000000000000E-002  0.35937500000000000        2.6067790716536039        2.6067790716536039        0.0000000000000000        1.0000000000000000     
   7.8125000000000000E-002  0.39062500000000000        2.4502575041905139        2.4502575041905139        0.0000000000000000        1.0000000000000000     
   7.8125000000000000E-002  0.42187500000000000        2.3219750422882601        2.3219750422882601        0.0000000000000000        1.0000000000000000     
   7.8125000000000000E-002  0.45312500000000000        2.2225204384187660        2.2225204384187660        0.0000000000000000        1.0000000000000000     
   7.8125000000000000E-002  0.48437500000000000        2.1490775679463781        2.1490775679463781        0.0000000000000000        1.0000000000000000     
   7.8125000000000000E-002  0.51562500000000000        2.0970989955116957        2.0970989955116957        0.0000000000000000        1.0000000000000000     
   7.8125000000000000E-002  0.54687500000000000        2.0616526669825728        2.0616526669825728        0.0000000000000000        1.0000000000000000     
   7.8125000000000000E-002  0.57812500000000000        2.0382550562107724        2.0382550562107724        0.0000000000000000        1.0000000000000000     
   7.8125000000000000E-002  0.60937500000000000        2.0232476310143386        2.0232476310143386        0.0000000000000000        1.0000000000000000     
   7.8125000000000000E-002  0.64062500000000000        2.0138633433020017        2.0138633433020017        0.0000000000000000        1.0000000000000000     
   7.8125000000000000E-002  0.67187500000000000        2.0081265438696723        2.0081265438696723        0.0000000000000000        1.0000000000000000     
   7.8125000000000000E-002  0.70312500000000000        2.0046898005186407        2.0046898005186407        0.0000000000000000        1.0000000000000000     
   7.8125000000000000E-002  0.73437500000000000        2.0026680682830262        2.0026680682830262        0.0000000000000000        1.0000000000000000     
   7.8125000000000000E-002  0.76562500000000000        2.0014981073645628        2.0014981073645628        0.0000000000000000        1.0000000000000000     
   7.8125000000000000E-002  0.79687500000000000        2.0008310311114688        2.0008310311114688        0.0000000000000000        1.0000000000000000     
   7.8125000000000000E-002  0.82812500000000000        2.0004557213411558        2.0004557213411558        0.0000000000000000        1.0000000000000000     
   7.8125000000000000E-002  0.85937500000000000        2.0002469881629601        2.0002469881629601        0.0000000000000000        1.0000000000000000     
   7.8125000000000000E-002  0.89062500000000000        2.0001318566351398        2.0001318566351398        0.0000000000000000        1.0000000000000000     
   7.8125000000000000E-002  0.92187500000000000        2.0000683214179102        2.0000683214179102        0.0000000000000000        1.0000000000000000     
   7.8125000000000000E-002  0.95312500000000000        2.0000322605101775        2.0000322605101775        0.0000000000000000        1.0000000000000000     
   7.8125000000000000E-002  0.98437500000000000        2.0000094458768425        2.0000094458768425        0.0000000000000000        1.0000000000000000     
   7.8125000000000000E-002   1.0156250000000000        1.9999905541231575        1.9999905541231575        0.0000000000000000        1.0000000000000000     
  0.10937500000000000       -1.5625000000000000E-002   3.0026437764914218        3.0026437764914218        1.0000000000000000        0.0000000000000000     
  0.10937500000000000        1.5625000000000000E-002   2.9973562235085782        2.9973562235085782        1.0000000000000000        0.0000000000000000     
  0.10937500000000000        4.6875000000000000E-002   2.9921220683688836        2.9921220683688836        1.0000000000000000        0.0000000000000000     
  0.10937500000000000        7.8125000000000000E-002   2.9870424390472103        2.9870424390472103        1.0000000000000000        0.0000000000000000     
  0.10937500000000000       0.10937500000000000        2.9822020590603291        2.9822020590603291        1.0000000000000000        0.0000000000000000     
  0.10937500000000000       0.14062500000000000        2.9776602687257769        2.9776602687257769        1.0000000000000000        0.0000000000000000     
  0.10937500000000000       0.17187500000000000        2.9734447386440972        2.9734447386440972        1.0000000000000000        0.0000000000000000     
  0.10937500000000000       0.20312500000000000        2.9695485373377970        2.9695485373377970        1.0000000000000000        0.0000000000000000     
  0.10937500000000000       0.23437500000000000        2.9659308684963848        2.9659308684963848        1.0000000000000000        0.0000000000000000     
  0.10937500000000000       0.26562500000000000        2.9625213991097241        2.9625213991097241        1.0000000000000000        0.0000000000000000     
  0.10937500000000000       0.29687500000000000        2.9598864511776410        2.9203354197263676       0.60000000000000031       0.39999999999999963     
  0.10937500000000000       0.32812500000000000        2.7861280279351481        2.7861280279351481        0.0000000000000000        1.0000000000000000     
  0.10937500000000000       0.35937500000000000        2.6067790716536043        2.6067790716536043        0.0000000000000000        1.0000000000000000     
  0.10937500000000000       0.39062500000000000        2.4502575041905139        2.4502575041905139        0.0000000000000000        1.0000000000000000     
  0.10937500000000000       0.42187500000000000        2.3219750422882601        2.3219750422882601        0.0000000000000000        1.0000000000000000     
  0.10937500000000000       0.45312500000000000        2.2225204384187665        2.2225204384187665        0.0000000000000000        1.0000000000000000     
  0.10937500000000000       0.48437500000000000        2.1490775679463785        2.1490775679463785        0.0000000000000000        1.0000000000000000     
  0.10937500000000000       0.51562500000000000        2.0970989955116957        2.0970989955116957        0.0000000000000000        1.0000000000000000     
  0.10937500000000000       0.54687500000000000        2.0616526669825728        2.0616526669825728        0.0000000000000000        1.0000000000000000     
  0.10937500000000000       0.57812500000000000        2.0382550562107720        2.0382550562107720        0.0000000000000000        1.0000000000000000     
  0.10937500000000000       0.60937500000000000        2.0232476310143386        2.0232476310143386        0.0000000000000000        1.0000000000000000     
  0.10937500000000000       0.64062500000000000        2.0138633433020017        2.0138633433020017        0.0000000000000000        1.0000000000000000     
  0.10937500000000000       0.67187500000000000        2.0081265438696723        2.0081265438696723        0.0000000000000000        1.0000000000000000     
  0.10937500000000000       0.70312500000000000        2.0046898005186407        2.0046898005186407        0.0000000000000000        1.0000000000000000     
  0.10937500000000000       0.73437500000000000        2.0026680682830262        2.0026680682830262        0.0000000000000000        1.0000000000000000     
  0.10937500000000000       0.76562500000000000        2.0014981073645628        2.0014981073645628        0.0000000000000000        1.0000000000000000     
  0.10937500000000000       0.79687500000000000        2.0008310311114688        2.0008310311114688        0.0000000000000000        1.0000000000000000     
  0.10937500000000000       0.82812500000000000        2.0004557213411562        2.0004557213411562        0.0000000000000000        1.0000000000000000     
  0.10937500000000000       0.85937500000000000        2.0002469881629601        2.0002469881629601        0.0000000000000000        1.0000000000000000     
  0.10937500000000000       0.89062500000000000        2.0001318566351398        2.0001318566351398        0.0000000000000000        1.0000000000000000     
  0.10937500000000000       0.92187500000000000        2.0000683214179102        2.0000683214179102        0.0000000000000000        1.0000000000000000     
  0.10937500000000000       0.95312500000000000        2.0000322605101775        2.0000322605101775        0.0000000000000000        1.0000000000000000     
  0.10937500000000000       0.98437500000000000        2.0000094458768425        2.0000094458768425        0.0000000000000000        1.0000000000000000     
  0.10937500000000000        1.0156250000000000        1.9999905541231575        1.9999905541231575        0.0000000000000000        1.0000000000000000     
  0.14062500000000000       -1.5625000000000000E-002   3.0026437764914218        3.0026437764914218        1.0000000000000000        0.0000000000000000     
  0.14062500000000000        1.5625000000000000E-002   2.9973562235085782        2.9973562235085782        1.0000000000000000        0.0000000000000000     
  0.14062500000000000        4.6875000000000000E-002   2.9921220683688841        2.9921220683688841        1.0000000000000000        0.0000000000000000     
  0.14062500000000000        7.8125000000000000E-002   2.9870424390472103        2.9870424390472103        1.0000000000000000        0.0000000000000000     
  0.14062500000000000       0.10937500000000000        2.9822020590603291        2.9822020590603291        1.0000000000000000        0.0000000000000000     
  0.14062500000000000       0.14062500000000000        2.9776602687257769        2.9776602687257769        1.0000000000000000        0.0000000000000000     
  0.14062500000000000       0.17187500000000000        2.9734447386440972        2.9734447386440972        1.0000000000000000        0.0000000000000000     
  0.14062500000000000       0.20312500000000000        2.9695485373377970        2.9695485373377970        1.0000000000000000        0.0000000000000000     
  0.14062500000000000       0.23437500000000000        2.9659308684963848        2.9659308684963848        1.0000000000000000        0.0000000000000000     
  0.14062500000000000       0.26562500000000000        2.9625213991097241        2.9625213991097241        1.0000000000000000        0.0000000000000000     
  0.14062500000000000       0.29687500000000000        2.9598864511776410        2.9203354197263680       0.60000000000000031       0.39999999999999963     
  0.14062500000000000       0.32812500000000000        2.7861280279351486        2.7861280279351486        0.0000000000000000        1.0000000000000000     
  0.14062500000000000       0.35937500000000000        2.6067790716536043        2.6067790716536043        0.0000000000000000        1.0000000000000000     
  0.14062500000000000       0.39062500000000000        2.4502575041905139        2.4502575041905139        0.0000000000000000        1.0000000000000000     
  0.14062500000000000       0.42187500000000000        2.3219750422882601        2.3219750422882601        0.0000000000000000        1.0000000000000000     
  0.14062500000000000       0.45312500000000000        2.2225204384187660        2.2225204384187660        0.0000000000000000        1.0000000000000000     
  0.14062500000000000       0.48437500000000000        2.1490775679463785        2.1490775679463785        0.0000000000000000        1.0000000000000000     
  0.14062500000000000       0.51562500000000000        2.0970989955116957        2.0970989955116957        0.0000000000000000        1.0000000000000000     
  0.14062500000000000       0.54687500000000000        2.0616526669825728        2.0616526669825728        0.0000000000000000        1.0000000000000000     
  0.14062500000000000       0.57812500000000000        2.0382550562107724        2.0382550562107724        0.0000000000000000        1.0000000000000000     