 VARIABLES="X","Y","U1","U2","F1","F2"
 zone i=          34  j=          34  f=point
 SOLUTIONTIME=   3.7500000000000006E-002  STRANDID=           4
  -1.5625000000000000E-002  -1.5625000000000000E-002   2.0000000000000000        2.0000000000000000        1.0000000000000000        0.0000000000000000     
  -1.5625000000000000E-002   1.5625000000000000E-002   2.9821671558444294        2.9821671558444294        1.0000000000000000        0.0000000000000000     
  -1.5625000000000000E-002   4.6875000000000000E-002   2.9482879713088912        2.9482879713088912        1.0000000000000000        0.0000000000000000     
  -1.5625000000000000E-002   7.8125000000000000E-002   2.9194156963934357        2.9194156963934357        1.0000000000000000        0.0000000000000000     
  -1.5625000000000000E-002  0.10937500000000000        2.8980659065659711        2.8980659065659711        1.0000000000000000        0.0000000000000000     
  -1.5625000000000000E-002  0.14062500000000000        2.8858924343502381        2.8858924343502381        1.0000000000000000        0.0000000000000000     
  -1.5625000000000000E-002  0.17187500000000000        2.8836291501603970        2.8836291501603970        1.0000000000000000        0.0000000000000000     
  -1.5625000000000000E-002  0.20312500000000000        2.8910763295406405        2.8910763295406405        1.0000000000000000        0.0000000000000000     
  -1.5625000000000000E-002  0.23437500000000000        2.9071091798579944        2.9071091798579944        1.0000000000000000        0.0000000000000000     
  -1.5625000000000000E-002  0.26562500000000000        2.9297131024528951        2.9297131024528951        1.0000000000000000        0.0000000000000000     
  -1.5625000000000000E-002  0.29687500000000000        2.9508050932804037        2.8940930619730501       0.60000000000000031       0.39999999999999963     
  -1.5625000000000000E-002  0.32812500000000000        2.6719235002295392        2.6719235002295392        0.0000000000000000        1.0000000000000000     
  -1.5625000000000000E-002  0.35937500000000000        2.4204451117027288        2.4204451117027288        0.0000000000000000        1.0000000000000000     
  -1.5625000000000000E-002  0.39062500000000000        2.2478523126929462        2.2478523126929462        0.0000000000000000        1.0000000000000000     
  -1.5625000000000000E-002  0.42187500000000000        2.1397375621628147        2.1397375621628147        0.0000000000000000        1.0000000000000000     
  -1.5625000000000000E-002  0.45312500000000000        2.0761251105584910        2.0761251105584910        0.0000000000000000        1.0000000000000000     
  -1.5625000000000000E-002  0.48437500000000000        2.0403610865947956        2.0403610865947956        0.0000000000000000        1.0000000000000000     
  -1.5625000000000000E-002  0.51562500000000000        2.0209351524797463        2.0209351524797463        0.0000000000000000        1.0000000000000000     
  -1.5625000000000000E-002  0.54687500000000000        2.0106646082268735        2.0106646082268735        0.0000000000000000        1.0000000000000000     
  -1.5625000000000000E-002  0.57812500000000000        2.0053511276798917        2.0053511276798917        0.0000000000000000        1.0000000000000000     
  -1.5625000000000000E-002  0.60937500000000000        2.0026507522685626        2.0026507522685626        0.0000000000000000        1.0000000000000000     
  -1.5625000000000000E-002  0.64062500000000000        2.0012986786613971        2.0012986786613971        0.0000000000000000        1.0000000000000000     
  -1.5625000000000000E-002  0.67187500000000000        2.0006301954219423        2.0006301954219423        0.0000000000000000        1.0000000000000000     
  -1.5625000000000000E-002  0.70312500000000000        2.0003032537824077        2.0003032537824077        0.0000000000000000        1.0000000000000000     
  -1.5625000000000000E-002  0.73437500000000000        2.0001448508317599        2.0001448508317599        0.0000000000000000        1.0000000000000000     
  -1.5625000000000000E-002  0.76562500000000000        2.0000687339582606        2.0000687339582606        0.0000000000000000        1.0000000000000000     
  -1.5625000000000000E-002  0.79687500000000000        2.0000324220153520        2.0000324220153520        0.0000000000000000        1.0000000000000000     
  -1.5625000000000000E-002  0.82812500000000000        2.0000152099068083        2.0000152099068083        0.0000000000000000        1.0000000000000000     
  -1.5625000000000000E-002  0.85937500000000000        2.0000070963140253        2.0000070963140253        0.0000000000000000        1.0000000000000000     
  -1.5625000000000000E-002  0.89062500000000000        2.0000032865691910        2.0000032865691910        0.0000000000000000        1.0000000000000000     
  -1.5625000000000000E-002  0.92187500000000000        2.0000014954235672        2.0000014954235672        0.0000000000000000        1.0000000000000000     
  -1.5625000000000000E-002  0.95312500000000000        2.0000006347402706        2.0000006347402706        0.0000000000000000        1.0000000000000000     
  -1.5625000000000000E-002  0.98437500000000000        2.0000001747201241        2.0000001747201241        0.0000000000000000        1.0000000000000000     
  -1.5625000000000000E-002   1.0156250000000000        2.0000000000000000        2.0000000000000000        0.0000000000000000        1.0000000000000000     
   1.5625000000000000E-002  -1.5625000000000000E-002   3.0178328441555706        3.0178328441555706        1.0000000000000000        0.0000000000000000     
   1.5625000000000000E-002   1.5625000000000000E-002   2.9821671558444294        2.9821671558444294        1.0000000000000000        0.0000000000000000     
   1.5625000000000000E-002   4.6875000000000000E-002   2.9482879713088912        2.9482879713088912        1.0000000000000000        0.0000000000000000     
   1.5625000000000000E-002   7.8125000000000000E-002   2.9194156963934357        2.9194156963934357        1.0000000000000000        0.0000000000000000     
   1.5625000000000000E-002  0.10937500000000000        2.8980659065659711        2.8980659065659711        1.0000000000000000        0.0000000000000000     
   1.5625000000000000E-002  0.14062500000000000        2.8858924343502381        2.8858924343502381        1.0000000000000000        0.0000000000000000     
   1.5625000000000000E-002  0.17187500000000000        2.8836291501603970        2.8836291501603970        1.0000000000000000        0.0000000000000000     
   1.5625000000000000E-002  0.20312500000000000        2.8910763295406405        2.8910763295406405        1.0000000000000000        0.0000000000000000     
   1.5625000000000000E-002  0.23437500000000000        2.9071091798579944        2.9071091798579944        1.0000000000000000        0.0000000000000000     
   1.5625000000000000E-002  0.26562500000000000        2.9297131024528951        2.9297131024528951        1.0000000000000000        0.0000000000000000     
   1.5625000000000000E-002  0.29687500000000000        2.9508050932804037        2.8940930619730501       0.60000000000000031       0.39999999999999963     
   1.5625000000000000E-002  0.32812500000000000        2.6719235002295392        2.6719235002295392        0.0000000000000000        1.0000000000000000     
   1.5625000000000000E-002  0.35937500000000000        2.4204451117027288        2.4204451117027288        0.0000000000000000        1.0000000000000000     
   1.5625000000000000E-002  0.39062500000000000        2.2478523126929462        2.2478523126929462        0.0000000000000000        1.0000000000000000     
   1.5625000000000000E-002  0.42187500000000000        2.1397375621628147        2.1397375621628147        0.0000000000000000        1.0000000000000000     
   1.5625000000000000E-002  0.45312500000000000        2.0761251105584910        2.0761251105584910        0.0000000000000000        1.0000000000000000     
   1.5625000000000000E-002  0.48437500000000000        2.0403610865947956        2.0403610865947956        0.0000000000000000        1.0000000000000000     
   1.5625000000000000E-002  0.51562500000000000        2.0209351524797463        2.0209351524797463        0.0000000000000000        1.0000000000000000     
   1.5625000000000000E-002  0.54687500000000000        2.0106646082268735        2.0106646082268735        0.0000000000000000        1.0000000000000000     
   1.5625000000000000E-002  0.57812500000000000        2.0053511276798917        2.0053511276798917        0.0000000000000000        1.0000000000000000     
   1.5625000000000000E-002  0.60937500000000000        2.0026507522685626        2.0026507522685626        0.0000000000000000        1.0000000000000000     
   1.5625000000000000E-002  0.64062500000000000        2.0012986786613971        2.0012986786613971        0.0000000000000000        1.0000000000000000     
   1.5625000000000000E-002  0.67187500000000000        2.0006301954219423        2.0006301954219423        0.0000000000000000        1.0000000000000000     
   1.5625000000000000E-002  0.70312500000000000        2.0003032537824077        2.0003032537824077        0.0000000000000000        1.0000000000000000     
   1.5625000000000000E-002  0.73437500000000000        2.0001448508317599        2.0001448508317599        0.0000000000000000        1.0000000000000000     
   1.5625000000000000E-002  0.76562500000000000        2.0000687339582606        2.0000687339582606        0.0000000000000000        1.0000000000000000     
   1.5625000000000000E-002  0.79687500000000000        2.0000324220153520        2.0000324220153520        0.0000000000000000        1.0000000000000000     
   1.5625000000000000E-002  0.82812500000000000        2.0000152099068083        2.0000152099068083        0.0000000000000000        1.0000000000000000     
   1.5625000000000000E-002  0.85937500000000000        2.0000070963140253        2.0000070963140253        0.0000000000000000        1.0000000000000000     
   1.5625000000000000E-002  0.89062500000000000        2.0000032865691910        2.0000032865691910        0.0000000000000000        1.0000000000000000     
   1.5625000000000000E-002  0.92187500000000000        2.0000014954235672        2.0000014954235672        0.0000000000000000        1.0000000000000000     
   1.5625000000000000E-002  0.95312500000000000        2.0000006347402706        2.0000006347402706        0.0000000000000000        1.0000000000000000     
   1.5625000000000000E-002  0.98437500000000000        2.0000001747201241        2.0000001747201241        0.0000000000000000        1.0000000000000000     
   1.5625000000000000E-002   1.0156250000000000        1.9999998252798759        1.9999998252798759        0.0000000000000000        1.0000000000000000     
   4.6875000000000000E-002  -1.5625000000000000E-002   3.0178328441555706        3.0178328441555706        1.0000000000000000        0.0000000000000000     
   4.6875000000000000E-002   1.5625000000000000E-002   2.9821671558444294        2.9821671558444294        1.0000000000000000        0.0000000000000000     
   4.6875000000000000E-002   4.6875000000000000E-002   2.9482879713088912        2.9482879713088912        1.0000000000000000        0.0000000000000000     
   4.6875000000000000E-002   7.8125000000000000E-002   2.9194156963934357        2.9194156963934357        1.0000000000000000        0.0000000000000000     
   4.6875000000000000E-002  0.10937500000000000        2.8980659065659711        2.8980659065659711        1.0000000000000000        0.0000000000000000     
   4.6875000000000000E-002  0.14062500000000000        2.8858924343502381        2.8858924343502381        1.0000000000000000        0.0000000000000000     
   4.6875000000000000E-002  0.17187500000000000        2.8836291501603970        2.8836291501603970        1.0000000000000000        0.0000000000000000     
   4.6875000000000000E-002  0.20312500000000000        2.8910763295406405        2.8910763295406405        1.0000000000000000        0.0000000000000000     
   4.6875000000000000E-002  0.23437500000000000        2.9071091798579944        2.9071091798579944        1.0000000000000000        0.0000000000000000     
   4.6875000000000000E-002  0.26562500000000000        2.9297131024528946        2.9297131024528946        1.0000000000000000        0.0000000000000000     
   4.6875000000000000E-002  0.29687500000000000        2.9508050932804037        2.8940930619730514       0.60000000000000031       0.39999999999999963     
   4.6875000000000000E-002  0.32812500000000000        2.6719235002295392        2.6719235002295392        0.0000000000000000        1.0000000000000000     
   4.6875000000000000E-002  0.35937500000000000        2.4204451117027288        2.4204451117027288        0.0000000000000000        1.0000000000000000     
   4.6875000000000000E-002  0.39062500000000000        2.2478523126929462        2.2478523126929462        0.0000000000000000        1.0000000000000000     
   4.6875000000000000E-002  0.42187500000000000        2.1397375621628147        2.1397375621628147        0.0000000000000000        1.0000000000000000     
   4.6875000000000000E-002  0.45312500000000000        2.0761251105584910        2.0761251105584910        0.0000000000000000        1.0000000000000000     
   4.6875000000000000E-002  0.48437500000000000        2.0403610865947956        2.0403610865947956        0.0000000000000000        1.0000000000000000     
   4.6875000000000000E-002  0.51562500000000000        2.0209351524797463        2.0209351524797463        0.0000000000000000        1.0000000000000000     
   4.6875000000000000E-002  0.54687500000000000        2.0106646082268735        2.0106646082268735        0.0000000000000000        1.0000000000000000     
   4.6875000000000000E-002  0.57812500000000000        2.0053511276798917        2.0053511276798917        0.0000000000000000        1.0000000000000000     
   4.6875000000000000E-002  0.60937500000000000        2.0026507522685626        2.0026507522685626        0.0000000000000000        1.0000000000000000     
   4.6875000000000000E-002  0.64062500000000000        2.0012986786613971        2.0012986786613971        0.0000000000000000        1.0000000000000000     
   4.6875000000000000E-002  0.67187500000000000        2.0006301954219423        2.0006301954219423        0.0000000000000000        1.0000000000000000     
   4.6875000000000000E-002  0.70312500000000000        2.0003032537824077        2.0003032537824077        0.0000000000000000        1.0000000000000000     
   4.6875000000000000E-002  0.73437500000000000        2.0001448508317599        2.0001448508317599        0.0000000000000000        1.0000000000000000     
   4.6875000000000000E-002  0.76562500000000000        2.0000687339582606        2.0000687339582606        0.0000000000000000        1.0000000000000000     
   4.6875000000000000E-002  0.79687500000000000        2.0000324220153520        2.0000324220153520        0.0000000000000000        1.0000000000000000     
   4.6875000000000000E-002  0.82812500000000000        2.0000152099068083        2.0000152099068083        0.0000000000000000        1.0000000000000000     
   4.6875000000000000E-002  0.85937500000000000        2.0000070963140253        2.0000070963140253        0.0000000000000000        1.0000000000000000     
   4.6875000000000000E-002  0.89062500000000000        2.0000032865691910        2.0000032865691910        0.0000000000000000        1.0000000000000000     
   4.6875000000000000E-002  0.92187500000000000        2.0000014954235672        2.0000014954235672        0.0000000000000000        1.0000000000000000     
   4.6875000000000000E-002  0.95312500000000000        2.0000006347402706        2.0000006347402706        0.0000000000000000        1.0000000000000000     
   4.6875000000000000E-002  0.98437500000000000        2.0000001747201241        2.0000001747201241        0.0000000000000000        1.0000000000000000     
   4.6875000000000000E-002   1.0156250000000000        1.9999998252798759        1.9999998252798759        0.0000000000000000        1.0000000000000000     
   7.8125000000000000E-002  -1.5625000000000000E-002   3.0178328441555706        3.0178328441555706        1.0000000000000000        0.0000000000000000     
   7.8125000000000000E-002   1.5625000000000000E-002   2.9821671558444294        2.9821671558444294        1.0000000000000000        0.0000000000000000     
   7.8125000000000000E-002   4.6875000000000000E-002   2.9482879713088912        2.9482879713088912        1.0000000000000000        0.0000000000000000     
   7.8125000000000000E-002   7.8125000000000000E-002   2.9194156963934357        2.9194156963934357        1.0000000000000000        0.0000000000000000     
   7.8125000000000000E-002  0.10937500000000000        2.8980659065659706        2.8980659065659706        1.0000000000000000        0.0000000000000000     
   7.8125000000000000E-002  0.14062500000000000        2.8858924343502381        2.8858924343502381        1.0000000000000000        0.0000000000000000     
   7.8125000000000000E-002  0.17187500000000000        2.8836291501603970        2.8836291501603970        1.0000000000000000        0.0000000000000000     
   7.8125000000000000E-002  0.20312500000000000        2.8910763295406405        2.8910763295406405        1.0000000000000000        0.0000000000000000     
   7.8125000000000000E-002  0.23437500000000000        2.9071091798579944        2.9071091798579944        1.0000000000000000        0.0000000000000000     
   7.8125000000000000E-002  0.26562500000000000        2.9297131024528946        2.9297131024528946        1.0000000000000000        0.0000000000000000     
   7.8125000000000000E-002  0.29687500000000000        2.9508050932804033        2.8940930619730549       0.60000000000000031       0.39999999999999963     
   7.8125000000000000E-002  0.32812500000000000        2.6719235002295392        2.6719235002295392        0.0000000000000000        1.0000000000000000     
   7.8125000000000000E-002  0.35937500000000000        2.4204451117027288        2.4204451117027288        0.0000000000000000        1.0000000000000000     
   7.8125000000000000E-002  0.39062500000000000        2.2478523126929462        2.2478523126929462        0.0000000000000000        1.0000000000000000     
   7.8125000000000000E-002  0.42187500000000000        2.1397375621628152        2.1397375621628152        0.0000000000000000        1.0000000000000000     
   7.8125000000000000E-002  0.45312500000000000        2.0761251105584910        2.0761251105584910        0.0000000000000000        1.0000000000000000     
   7.8125000000000000E-002  0.48437500000000000        2.0403610865947956        2.0403610865947956        0.0000000000000000        1.0000000000000000     
   7.8125000000000000E-002  0.51562500000000000        2.0209351524797463        2.0209351524797463        0.0000000000000000        1.0000000000000000     
   7.8125000000000000E-002  0.54687500000000000        2.0106646082268735        2.0106646082268735        0.0000000000000000        1.0000000000000000     
   7.8125000000000000E-002  0.57812500000000000        2.0053511276798917        2.0053511276798917        0.0000000000000000        1.0000000000000000     
   7.8125000000000000E-002  0.60937500000000000        2.0026507522685626        2.0026507522685626        0.0000000000000000        1.0000000000000000     
   7.8125000000000000E-002  0.64062500000000000        2.0012986786613971        2.0012986786613971        0.0000000000000000        1.0000000000000000     
   7.8125000000000000E-002  0.67187500000000000        2.0006301954219423        2.0006301954219423        0.0000000000000000        1.0000000000000000     
   7.8125000000000000E-002  0.70312500000000000        2.0003032537824077        2.0003032537824077        0.0000000000000000        1.0000000000000000     
   7.8125000000000000E-002  0.73437500000000000        2.0001448508317599        2.0001448508317599        0.0000000000000000        1.0000000000000000     
   7.8125000000000000E-002  0.76562500000000000        2.0000687339582601        2.0000687339582601        0.0000000000000000        1.0000000000000000     
   7.8125000000000000E-002  0.79687500000000000        2.0000324220153520        2.0000324220153520        0.0000000000000000        1.0000000000000000     
   7.8125000000000000E-002  0.82812500000000000        2.0000152099068083        2.0000152099068083        0.0000000000000000        1.0000000000000000     
   7.8125000000000000E-002  0.85937500000000000        2.0000070963140253        2.0000070963140253        0.0000000000000000        1.0000000000000000     
   7.8125000000000000E-002  0.89062500000000000        2.0000032865691910        2.0000032865691910        0.0000000000000000        1.0000000000000000     
   7.8125000000000000E-002  0.92187500000000000        2.0000014954235672        2.0000014954235672        0.0000000000000000        1.0000000000000000     
   7.8125000000000000E-002  0.95312500000000000        2.0000006347402706        2.0000006347402706        0.0000000000000000        1.0000000000000000     
   7.8125000000000000E-002  0.98437500000000000        2.0000001747201241        2.0000001747201241        0.0000000000000000        1.0000000000000000     
   7.8125000000000000E-002   1.0156250000000000        1.9999998252798759        1.9999998252798759        0.0000000000000000        1.0000000000000000     
  0.10937500000000000       -1.5625000000000000E-002   3.0178328441555706        3.0178328441555706        1.0000000000000000        0.0000000000000000     
  0.10937500000000000        1.5625000000000000E-002   2.9821671558444294        2.9821671558444294        1.0000000000000000        0.0000000000000000     
  0.10937500000000000        4.6875000000000000E-002   2.9482879713088912        2.9482879713088912        1.0000000000000000        0.0000000000000000     
  0.10937500000000000        7.8125000000000000E-002   2.9194156963934357        2.9194156963934357        1.0000000000000000        0.0000000000000000     
  0.10937500000000000       0.10937500000000000        2.8980659065659706        2.8980659065659706        1.0000000000000000        0.0000000000000000     
  0.10937500000000000       0.14062500000000000        2.8858924343502377        2.8858924343502377        1.0000000000000000        0.0000000000000000     
  0.10937500000000000       0.17187500000000000        2.8836291501603970        2.8836291501603970        1.0000000000000000        0.0000000000000000     
  0.10937500000000000       0.20312500000000000        2.8910763295406401        2.8910763295406401        1.0000000000000000        0.0000000000000000     
  0.10937500000000000       0.23437500000000000        2.9071091798579944        2.9071091798579944        1.0000000000000000        0.0000000000000000     
  0.10937500000000000       0.26562500000000000        2.9297131024528946        2.9297131024528946        1.0000000000000000        0.0000000000000000     
  0.10937500000000000       0.29687500000000000        2.9508050932804033        2.8940930619730456       0.60000000000000031       0.39999999999999963     
  0.10937500000000000       0.32812500000000000        2.6719235002295396        2.6719235002295396        0.0000000000000000        1.0000000000000000     
  0.10937500000000000       0.35937500000000000        2.4204451117027292        2.4204451117027292        0.0000000000000000        1.0000000000000000     
  0.10937500000000000       0.39062500000000000        2.2478523126929466        2.2478523126929466        0.0000000000000000        1.0000000000000000     
  0.10937500000000000       0.42187500000000000        2.1397375621628152        2.1397375621628152        0.0000000000000000        1.0000000000000000     
  0.10937500000000000       0.45312500000000000        2.0761251105584915        2.0761251105584915        0.0000000000000000        1.0000000000000000     
  0.10937500000000000       0.48437500000000000        2.0403610865947956        2.0403610865947956        0.0000000000000000        1.0000000000000000     
  0.10937500000000000       0.51562500000000000        2.0209351524797463        2.0209351524797463        0.0000000000000000        1.0000000000000000     
  0.10937500000000000       0.54687500000000000        2.0106646082268735        2.0106646082268735        0.0000000000000000        1.0000000000000000     
  0.10937500000000000       0.57812500000000000        2.0053511276798917        2.0053511276798917        0.0000000000000000        1.0000000000000000     
  0.10937500000000000       0.60937500000000000        2.0026507522685626        2.0026507522685626        0.0000000000000000        1.0000000000000000     
  0.10937500000000000       0.64062500000000000        2.0012986786613971        2.0012986786613971        0.0000000000000000        1.0000000000000000     
  0.10937500000000000       0.67187500000000000        2.0006301954219423        2.0006301954219423        0.0000000000000000        1.0000000000000000     
  0.10937500000000000       0.70312500000000000        2.0003032537824077        2.0003032537824077        0.0000000000000000        1.0000000000000000     
  0.10937500000000000       0.73437500000000000        2.0001448508317599        2.0001448508317599        0.0000000000000000        1.0000000000000000     
  0.10937500000000000       0.76562500000000000        2.0000687339582601        2.0000687339582601        0.0000000000000000        1.0000000000000000     
  0.10937500000000000       0.79687500000000000        2.0000324220153520        2.0000324220153520        0.0000000000000000        1.0000000000000000     
  0.10937500000000000       0.82812500000000000        2.0000152099068083        2.0000152099068083        0.0000000000000000        1.0000000000000000     
  0.10937500000000000       0.85937500000000000        2.0000070963140253        2.0000070963140253        0.0000000000000000        1.0000000000000000     
  0.10937500000000000       0.89062500000000000        2.0000032865691910        2.0000032865691910        0.0000000000000000        1.0000000000000000     
  0.10937500000000000       0.92187500000000000        2.0000014954235672        2.0000014954235672        0.0000000000000000        1.0000000000000000     
  0.10937500000000000       0.95312500000000000        2.0000006347402706        2.0000006347402706        0.0000000000000000        1.0000000000000000     
  0.10937500000000000       0.98437500000000000        2.0000001747201241        2.0000001747201241        0.0000000000000000        1.0000000000000000     
  0.10937500000000000        1.0156250000000000        1.9999998252798759        1.9999998252798759        0.0000000000000000        1.0000000000000000     
  0.14062500000000000       -1.5625000000000000E-002   3.0178328441555706        3.0178328441555706        1.0000000000000000        0.0000000000000000     
  0.14062500000000000        1.5625000000000000E-002   2.9821671558444294        2.9821671558444294        1.0000000000000000        0.0000000000000000     
  0.14062500000000000        4.6875000000000000E-002   2.9482879713088912        2.9482879713088912        1.0000000000000000        0.0000000000000000     
  0.14062500000000000        7.8125000000000000E-002   2.9194156963934352        2.9194156963934352        1.0000000000000000        0.0000000000000000     
  0.14062500000000000       0.10937500000000000        2.8980659065659706        2.8980659065659706        1.0000000000000000        0.0000000000000000     
  0.14062500000000000       0.14062500000000000        2.8858924343502377        2.8858924343502377        1.0000000000000000        0.0000000000000000     
  0.14062500000000000       0.17187500000000000        2.8836291501603966        2.8836291501603966        1.0000000000000000        0.0000000000000000     
  0.14062500000000000       0.20312500000000000        2.8910763295406405        2.8910763295406405        1.0000000000000000        0.0000000000000000     
  0.14062500000000000       0.23437500000000000        2.9071091798579944        2.9071091798579944        1.0000000000000000        0.0000000000000000     
  0.14062500000000000       0.26562500000000000        2.9297131024528946        2.9297131024528946        1.0000000000000000        0.0000000000000000     
  0.14062500000000000       0.29687500000000000        2.9508050932804033        2.8940930619730461       0.60000000000000031       0.39999999999999963     
  0.14062500000000000       0.32812500000000000        2.6719235002295401        2.6719235002295401        0.0000000000000000        1.0000000000000000     
  0.14062500000000000       0.35937500000000000        2.4204451117027292        2.4204451117027292        0.0000000000000000        1.0000000000000000     
  0.14062500000000000       0.39062500000000000        2.2478523126929466        2.2478523126929466        0.0000000000000000        1.0000000000000000     
  0.14062500000000000       0.42187500000000000        2.1397375621628152        2.1397375621628152        0.0000000000000000        1.0000000000000000     
  0.14062500000000000       0.45312500000000000        2.0761251105584915        2.0761251105584915        0.0000000000000000        1.0000000000000000     
  0.14062500000000000       0.48437500000000000        2.0403610865947956        2.0403610865947956        0.0000000000000000        1.0000000000000000     
  0.14062500000000000       0.51562500000000000        2.0209351524797463        2.0209351524797463        0.0000000000000000        1.0000000000000000     
  0.14062500000000000       0.54687500000000000        2.0106646082268735        2.0106646082268735        0.0000000000000000        1.0000000000000000     
  0.14062500000000000       0.57812500000000000        2.0053511276798917        2.0053511276798917        0.0000000000000000        1.0000000000000000     