 VARIABLES="X","Y","U1","U2","F1","F2"
 zone i=          34  j=          34  f=point
 SOLUTIONTIME=   0.0000000000000000       STRANDID=           1
  -1.5625000000000000E-002  -1.5625000000000000E-002   2.0000000000000000        2.0000000000000000        1.0000000000000000        0.0000000000000000     
  -1.5625000000000000E-002   1.5625000000000000E-002   2.0000000000000000        2.0000000000000000        1.0000000000000000        0.0000000000000000     
  -1.5625000000000000E-002   4.6875000000000000E-002   2.0000000000000000        2.0000000000000000        1.0000000000000000        0.0000000000000000     
  -1.5625000000000000E-002   7.8125000000000000E-002   2.0000000000000000        2.0000000000000000        1.0000000000000000        0.0000000000000000     
  -1.5625000000000000E-002  0.10937500000000000        2.0000000000000000        2.0000000000000000        1.0000000000000000        0.0000000000000000     
  -1.5625000000000000E-002  0.14062500000000000        2.0000000000000000        2.0000000000000000        1.0000000000000000        0.0000000000000000     
  -1.5625000000000000E-002  0.17187500000000000        2.0000000000000000        2.0000000000000000        1.0000000000000000        0.0000000000000000     
  -1.5625000000000000E-002  0.20312500000000000        2.0000000000000000        2.0000000000000000        1.0000000000000000        0.0000000000000000     
  -1.5625000000000000E-002  0.23437500000000000        2.0000000000000000        2.0000000000000000        1.0000000000000000        0.0000000000000000     
  -1.5625000000000000E-002  0.26562500000000000        2.0000000000000000        2.0000000000000000        1.0000000000000000        0.0000000000000000     
  -1.5625000000000000E-002  0.29687500000000000        2.0000000000000000        2.0000000000000000       0.60000000000000031       0.39999999999999963     
  -1.5625000000000000E-002  0.32812500000000000        2.0000000000000000        2.0000000000000000        0.0000000000000000        1.0000000000000000     
  -1.5625000000000000E-002  0.35937500000000000        2.0000000000000000        2.0000000000000000        0.0000000000000000        1.0000000000000000     
  -1.5625000000000000E-002  0.39062500000000000        2.0000000000000000        2.0000000000000000        0.0000000000000000        1.0000000000000000     
  -1.5625000000000000E-002  0.42187500000000000        2.0000000000000000        2.0000000000000000        0.0000000000000000        1.0000000000000000     
  -1.5625000000000000E-002  0.45312500000000000        2.0000000000000000        2.0000000000000000        0.0000000000000000        1.0000000000000000     
  -1.5625000000000000E-002  0.48437500000000000        2.0000000000000000        2.0000000000000000        0.0000000000000000        1.0000000000000000     
  -1.5625000000000000E-002  0.51562500000000000        2.0000000000000000        2.0000000000000000        0.0000000000000000        1.0000000000000000     
  -1.5625000000000000E-002  0.54687500000000000        2.0000000000000000        2.0000000000000000        0.0000000000000000        1.0000000000000000     
  -1.5625000000000000E-002  0.57812500000000000        2.0000000000000000        2.0000000000000000        0.0000000000000000        1.0000000000000000     
  -1.5625000000000000E-002  0.60937500000000000        2.0000000000000000        2.0000000000000000        0.0000000000000000        1.0000000000000000     
  -1.5625000000000000E-002  0.64062500000000000        2.0000000000000000        2.0000000000000000        0.0000000000000000        1.0000000000000000     
  -1.5625000000000000E-002  0.67187500000000000        2.0000000000000000        2.0000000000000000        0.0000000000000000        1.0000000000000000     
  -1.5625000000000000E-002  0.70312500000000000        2.0000000000000000        2.0000000000000000        0.0000000000000000        1.0000000000000000     
  -1.5625000000000000E-002  0.73437500000000000        2.0000000000000000        2.0000000000000000        0.0000000000000000        1.0000000000000000     
  -1.5625000000000000E-002  0.76562500000000000        2.0000000000000000        2.0000000000000000        0.0000000000000000        1.0000000000000000     
  -1.5625000000000000E-002  0.79687500000000000        2.0000000000000000        2.0000000000000000        0.0000000000000000        1.0000000000000000     
  -1.5625000000000000E-002  0.82812500000000000        2.0000000000000000        2.0000000000000000        0.0000000000000000        1.0000000000000000     
  -1.5625000000000000E-002  0.85937500000000000        2.0000000000000000        2.0000000000000000        0.0000000000000000        1.0000000000000000     
  -1.5625000000000000E-002  0.89062500000000000        2.0000000000000000        2.0000000000000000        0.0000000000000000        1.0000000000000000     
  -1.5625000000000000E-002  0.92187500000000000        2.0000000000000000        2.0000000000000000        0.0000000000000000        1.0000000000000000     
  -1.5625000000000000E-002  0.95312500000000000        2.0000000000000000        2.0000000000000000        0.0000000000000000        1.0000000000000000     
  -1.5625000000000000E-002  0.98437500000000000        2.0000000000000000        2.0000000000000000        0.0000000000000000        1.0000000000000000     
  -1.5625000000000000E-002   1.0156250000000000        2.0000000000000000        2.0000000000000000        0.0000000000000000        1.0000000000000000     
   1.5625000000000000E-002  -1.5625000000000000E-002   4.0000000000000000        4.0000000000000000        1.0000000000000000        0.0000000000000000     
   1.5625000000000000E-002   1.5625000000000000E-002   2.0000000000000000        2.0000000000000000        1.0000000000000000        0.0000000000000000     
   1.5625000000000000E-002   4.6875000000000000E-002   2.0000000000000000        2.0000000000000000        1.0000000000000000        0.0000000000000000     
   1.5625000000000000E-002   7.8125000000000000E-002   2.0000000000000000        2.0000000000000000        1.0000000000000000        0.0000000000000000     
   1.5625000000000000E-002  0.10937500000000000        2.0000000000000000        2.0000000000000000        1.0000000000000000        0.0000000000000000     
   1.5625000000000000E-002  0.14062500000000000        2.0000000000000000        2.0000000000000000        1.0000000000000000        0.0000000000000000     
   1.5625000000000000E-002  0.17187500000000000        2.0000000000000000        2.0000000000000000        1.0000000000000000        0.0000000000000000     
   1.5625000000000000E-002  0.20312500000000000        2.0000000000000000        2.0000000000000000        1.0000000000000000        0.0000000000000000     
   1.5625000000000000E-002  0.23437500000000000        2.0000000000000000        2.0000000000000000        1.0000000000000000        0.0000000000000000     
   1.5625000000000000E-002  0.26562500000000000        2.0000000000000000        2.0000000000000000        1.0000000000000000        0.0000000000000000     
   1.5625000000000000E-002  0.29687500000000000        2.0000000000000000        2.0000000000000000       0.60000000000000031       0.39999999999999963     
   1.5625000000000000E-002  0.32812500000000000        2.0000000000000000        2.0000000000000000        0.0000000000000000        1.0000000000000000     
   1.5625000000000000E-002  0.35937500000000000        2.0000000000000000        2.0000000000000000        0.0000000000000000        1.0000000000000000     
   1.5625000000000000E-002  0.39062500000000000        2.0000000000000000        2.0000000000000000        0.0000000000000000        1.0000000000000000     
   1.5625000000000000E-002  0.42187500000000000        2.0000000000000000        2.0000000000000000        0.0000000000000000        1.0000000000000000     
   1.5625000000000000E-002  0.45312500000000000        2.0000000000000000        2.0000000000000000        0.0000000000000000        1.0000000000000000     
   1.5625000000000000E-002  0.48437500000000000        2.0000000000000000        2.0000000000000000        0.0000000000000000        1.0000000000000000     
   1.5625000000000000E-002  0.51562500000000000        2.0000000000000000        2.0000000000000000        0.0000000000000000        1.0000000000000000     
   1.5625000000000000E-002  0.54687500000000000        2.0000000000000000        2.0000000000000000        0.0000000000000000        1.0000000000000000     
   1.5625000000000000E-002  0.57812500000000000        2.0000000000000000        2.0000000000000000        0.0000000000000000        1.0000000000000000     
   1.5625000000000000E-002  0.60937500000000000        2.0000000000000000        2.0000000000000000        0.0000000000000000        1.0000000000000000     
   1.5625000000000000E-002  0.64062500000000000        2.0000000000000000        2.0000000000000000        0.0000000000000000        1.0000000000000000     
   1.5625000000000000E-002  0.67187500000000000        2.0000000000000000        2.0000000000000000        0.0000000000000000        1.0000000000000000     
   1.5625000000000000E-002  0.70312500000000000        2.0000000000000000        2.0000000000000000        0.0000000000000000        1.0000000000000000     
   1.5625000000000000E-002  0.73437500000000000        2.0000000000000000        2.0000000000000000        0.0000000000000000        1.0000000000000000     
   1.5625000000000000E-002  0.76562500000000000        2.0000000000000000        2.0000000000000000        0.0000000000000000        1.0000000000000000     
   1.5625000000000000E-002  0.79687500000000000        2.0000000000000000        2.0000000000000000        0.0000000000000000        1.0000000000000000     
   1.5625000000000000E-002  0.82812500000000000        2.0000000000000000        2.0000000000000000        0.0000000000000000        1.0000000000000000     
   1.5625000000000000E-002  0.85937500000000000        2.0000000000000000        2.0000000000000000        0.0000000000000000        1.0000000000000000     
   1.5625000000000000E-002  0.89062500000000000        2.0000000000000000        2.0000000000000000        0.0000000000000000        1.0000000000000000     
   1.5625000000000000E-002  0.92187500000000000        2.0000000000000000        2.0000000000000000        0.0000000000000000        1.0000000000000000     
   1.5625000000000000E-002  0.95312500000000000        2.0000000000000000        2.0000000000000000        0.0000000000000000        1.0000000000000000     
   1.5625000000000000E-002  0.98437500000000000        2.0000000000000000        2.0000000000000000        0.0000000000000000        1.0000000000000000     
   1.5625000000000000E-002   1.0156250000000000        2.0000000000000000        2.0000000000000000        0.0000000000000000        1.0000000000000000     
   4.6875000000000000E-002  -1.5625000000000000E-002   4.0000000000000000        4.0000000000000000        1.0000000000000000        0.0000000000000000     
   4.6875000000000000E-002   1.5625000000000000E-002   2.0000000000000000        2.0000000000000000        1.0000000000000000        0.0000000000000000     
   4.6875000000000000E-002   4.6875000000000000E-002   2.0000000000000000        2.0000000000000000        1.0000000000000000        0.0000000000000000     
   4.6875000000000000E-002   7.8125000000000000E-002   2.0000000000000000        2.0000000000000000        1.0000000000000000        0.0000000000000000     
   4.6875000000000000E-002  0.10937500000000000        2.0000000000000000        2.0000000000000000        1.0000000000000000        0.0000000000000000     
   4.6875000000000000E-002  0.14062500000000000        2.0000000000000000        2.0000000000000000        1.0000000000000000        0.0000000000000000     
   4.6875000000000000E-002  0.17187500000000000        2.0000000000000000        2.0000000000000000        1.0000000000000000        0.0000000000000000     
   4.6875000000000000E-002  0.20312500000000000        2.0000000000000000        2.0000000000000000        1.0000000000000000        0.0000000000000000     
   4.6875000000000000E-002  0.23437500000000000        2.0000000000000000        2.0000000000000000        1.0000000000000000        0.0000000000000000     
   4.6875000000000000E-002  0.26562500000000000        2.0000000000000000        2.0000000000000000        1.0000000000000000        0.0000000000000000     
   4.6875000000000000E-002  0.29687500000000000        2.0000000000000000        2.0000000000000000       0.60000000000000031       0.39999999999999963     
   4.6875000000000000E-002  0.32812500000000000        2.0000000000000000        2.0000000000000000        0.0000000000000000        1.0000000000000000     
   4.6875000000000000E-002  0.35937500000000000        2.0000000000000000        2.0000000000000000        0.0000000000000000        1.0000000000000000     
   4.6875000000000000E-002  0.39062500000000000        2.0000000000000000        2.0000000000000000        0.0000000000000000        1.0000000000000000     
   4.6875000000000000E-002  0.42187500000000000        2.0000000000000000        2.0000000000000000        0.0000000000000000        1.0000000000000000     
   4.6875000000000000E-002  0.45312500000000000        2.0000000000000000        2.0000000000000000        0.0000000000000000        1.0000000000000000     
   4.6875000000000000E-002  0.48437500000000000        2.0000000000000000        2.0000000000000000        0.0000000000000000        1.0000000000000000     
   4.6875000000000000E-002  0.51562500000000000        2.0000000000000000        2.0000000000000000        0.0000000000000000        1.0000000000000000     
   4.6875000000000000E-002  0.54687500000000000        2.0000000000000000        2.0000000000000000        0.0000000000000000        1.0000000000000000     
   4.6875000000000000E-002  0.57812500000000000        2.0000000000000000        2.0000000000000000        0.0000000000000000        1.0000000000000000     
   4.6875000000000000E-002  0.60937500000000000        2.0000000000000000        2.0000000000000000        0.0000000000000000        1.0000000000000000     
   4.6875000000000000E-002  0.64062500000000000        2.0000000000000000        2.0000000000000000        0.0000000000000000        1.0000000000000000     
   4.6875000000000000E-002  0.67187500000000000        2.0000000000000000        2.0000000000000000        0.0000000000000000        1.0000000000000000     
   4.6875000000000000E-002  0.70312500000000000        2.0000000000000000        2.0000000000000000        0.0000000000000000        1.0000000000000000     
   4.6875000000000000E-002  0.73437500000000000        2.0000000000000000        2.0000000000000000        0.0000000000000000        1.0000000000000000     
   4.6875000000000000E-002  0.76562500000000000        2.0000000000000000        2.0000000000000000        0.0000000000000000        1.0000000000000000     
   4.6875000000000000E-002  0.79687500000000000        2.0000000000000000        2.0000000000000000        0.0000000000000000        1.0000000000000000     
   4.6875000000000000E-002  0.82812500000000000        2.0000000000000000        2.0000000000000000        0.0000000000000000        1.0000000000000000     
   4.6875000000000000E-002  0.85937500000000000        2.0000000000000000        2.0000000000000000        0.0000000000000000        1.0000000000000000     
   4.6875000000000000E-002  0.89062500000000000        2.0000000000000000        2.0000000000000000        0.0000000000000000        1.0000000000000000     
   4.6875000000000000E-002  0.92187500000000000        2.0000000000000000        2.0000000000000000        0.0000000000000000        1.0000000000000000     
   4.6875000000000000E-002  0.95312500000000000        2.0000000000000000        2.0000000000000000        0.0000000000000000        1.0000000000000000     
   4.6875000000000000E-002  0.98437500000000000        2.0000000000000000        2.0000000000000000        0.0000000000000000        1.0000000000000000     
   4.6875000000000000E-002   1.0156250000000000        2.0000000000000000        2.0000000000000000        0.0000000000000000        1.0000000000000000     
   7.8125000000000000E-002  -1.5625000000000000E-002   4.0000000000000000        4.0000000000000000        1.0000000000000000        0.0000000000000000     
   7.8125000000000000E-002   1.5625000000000000E-002   2.0000000000000000        2.0000000000000000        1.0000000000000000        0.0000000000000000     
   7.8125000000000000E-002   4.6875000000000000E-002   2.0000000000000000        2.0000000000000000        1.0000000000000000        0.0000000000000000     
   7.8125000000000000E-002   7.8125000000000000E-002   2.0000000000000000        2.0000000000000000        1.0000000000000000        0.0000000000000000     
   7.8125000000000000E-002  0.10937500000000000        2.0000000000000000        2.0000000000000000        1.0000000000000000        0.0000000000000000     
   7.8125000000000000E-002  0.14062500000000000        2.0000000000000000        2.0000000000000000        1.0000000000000000        0.0000000000000000     
   7.8125000000000000E-002  0.17187500000000000        2.0000000000000000        2.0000000000000000        1.0000000000000000        0.0000000000000000     
   7.8125000000000000E-002  0.20312500000000000        2.0000000000000000        2.0000000000000000        1.0000000000000000        0.0000000000000000     
   7.8125000000000000E-002  0.23437500000000000        2.0000000000000000        2.0000000000000000        1.0000000000000000        0.0000000000000000     
   7.8125000000000000E-002  0.26562500000000000        2.0000000000000000        2.0000000000000000        1.0000000000000000        0.0000000000000000     
   7.8125000000000000E-002  0.29687500000000000        2.0000000000000000        2.0000000000000000       0.60000000000000031       0.39999999999999963     
   7.8125000000000000E-002  0.32812500000000000        2.0000000000000000        2.0000000000000000        0.0000000000000000        1.0000000000000000     
   7.8125000000000000E-002  0.35937500000000000        2.0000000000000000        2.0000000000000000        0.0000000000000000        1.0000000000000000     
   7.8125000000000000E-002  0.39062500000000000        2.0000000000000000        2.0000000000000000        0.0000000000000000        1.0000000000000000     
   7.8125000000000000E-002  0.42187500000000000        2.0000000000000000        2.0000000000000000        0.0000000000000000        1.0000000000000000     
   7.8125000000000000E-002  0.45312500000000000        2.0000000000000000        2.0000000000000000        0.0000000000000000        1.0000000000000000     
   7.8125000000000000E-002  0.48437500000000000        2.0000000000000000        2.0000000000000000        0.0000000000000000        1.0000000000000000     
   7.8125000000000000E-002  0.51562500000000000        2.0000000000000000        2.0000000000000000        0.0000000000000000        1.0000000000000000     
   7.8125000000000000E-002  0.54687500000000000        2.0000000000000000        2.0000000000000000        0.0000000000000000        1.0000000000000000     
   7.8125000000000000E-002  0.57812500000000000        2.0000000000000000        2.0000000000000000        0.0000000000000000        1.0000000000000000     
   7.8125000000000000E-002  0.60937500000000000        2.0000000000000000        2.0000000000000000        0.0000000000000000        1.0000000000000000     
   7.8125000000000000E-002  0.64062500000000000        2.0000000000000000        2.0000000000000000        0.0000000000000000        1.0000000000000000     
   7.8125000000000000E-002  0.67187500000000000        2.0000000000000000        2.0000000000000000        0.0000000000000000        1.0000000000000000     
   7.8125000000000000E-002  0.70312500000000000        2.0000000000000000        2.0000000000000000        0.0000000000000000        1.0000000000000000     
   7.8125000000000000E-002  0.73437500000000000        2.0000000000000000        2.0000000000000000        0.0000000000000000        1.0000000000000000     
   7.8125000000000000E-002  0.76562500000000000        2.0000000000000000        2.0000000000000000        0.0000000000000000        1.0000000000000000     
   7.8125000000000000E-002  0.79687500000000000        2.0000000000000000        2.0000000000000000        0.0000000000000000        1.0000000000000000     
   7.8125000000000000E-002  0.82812500000000000        2.0000000000000000        2.0000000000000000        0.0000000000000000        1.0000000000000000     
   7.8125000000000000E-002  0.85937500000000000        2.0000000000000000        2.0000000000000000        0.0000000000000000        1.0000000000000000     
   7.8125000000000000E-002  0.89062500000000000        2.0000000000000000        2.0000000000000000        0.0000000000000000        1.0000000000000000     
   7.8125000000000000E-002  0.92187500000000000        2.0000000000000000        2.0000000000000000        0.0000000000000000        1.0000000000000000     
   7.8125000000000000E-002  0.95312500000000000        2.0000000000000000        2.0000000000000000        0.0000000000000000        1.0000000000000000     
   7.8125000000000000E-002  0.98437500000000000        2.0000000000000000        2.0000000000000000        0.0000000000000000        1.0000000000000000     
   7.8125000000000000E-002   1.0156250000000000        2.0000000000000000        2.0000000000000000        0.0000000000000000        1.0000000000000000     
  0.10937500000000000       -1.5625000000000000E-002   4.0000000000000000        4.0000000000000000        1.0000000000000000        0.0000000000000000     
  0.10937500000000000        1.5625000000000000E-002   2.0000000000000000        2.0000000000000000        1.0000000000000000        0.0000000000000000     
  0.10937500000000000        4.6875000000000000E-002   2.0000000000000000        2.0000000000000000        1.0000000000000000        0.0000000000000000     
  0.10937500000000000        7.8125000000000000E-002   2.0000000000000000        2.0000000000000000        1.0000000000000000        0.0000000000000000     
  0.10937500000000000       0.10937500000000000        2.0000000000000000        2.0000000000000000        1.0000000000000000        0.0000000000000000     
  0.10937500000000000       0.14062500000000000        2.0000000000000000        2.0000000000000000        1.0000000000000000        0.0000000000000000     
  0.10937500000000000       0.17187500000000000        2.0000000000000000        2.0000000000000000        1.0000000000000000        0.0000000000000000     
  0.10937500000000000       0.20312500000000000        2.0000000000000000        2.0000000000000000        1.0000000000000000        0.0000000000000000     
  0.10937500000000000       0.23437500000000000        2.0000000000000000        2.0000000000000000        1.0000000000000000        0.0000000000000000     
  0.10937500000000000       0.26562500000000000        2.0000000000000000        2.0000000000000000        1.0000000000000000        0.0000000000000000     
  0.10937500000000000       0.29687500000000000        2.0000000000000000        2.0000000000000000       0.60000000000000031       0.39999999999999963     
  0.10937500000000000       0.32812500000000000        2.0000000000000000        2.0000000000000000        0.0000000000000000        1.0000000000000000     
  0.10937500000000000       0.35937500000000000        2.0000000000000000        2.0000000000000000        0.0000000000000000        1.0000000000000000     
  0.10937500000000000       0.39062500000000000        2.0000000000000000        2.0000000000000000        0.0000000000000000        1.0000000000000000     
  0.10937500000000000       0.42187500000000000        2.0000000000000000        2.0000000000000000        0.0000000000000000        1.0000000000000000     
  0.10937500000000000       0.45312500000000000        2.0000000000000000        2.0000000000000000        0.0000000000000000        1.0000000000000000     
  0.10937500000000000       0.48437500000000000        2.0000000000000000        2.0000000000000000        0.0000000000000000        1.0000000000000000     
  0.10937500000000000       0.51562500000000000        2.0000000000000000        2.0000000000000000        0.0000000000000000        1.0000000000000000     
  0.10937500000000000       0.54687500000000000        2.0000000000000000        2.0000000000000000        0.0000000000000000        1.0000000000000000     
  0.10937500000000000       0.57812500000000000        2.0000000000000000        2.0000000000000000        0.0000000000000000        1.0000000000000000     
  0.10937500000000000       0.60937500000000000        2.0000000000000000        2.0000000000000000        0.0000000000000000        1.0000000000000000     
  0.10937500000000000       0.64062500000000000        2.0000000000000000        2.0000000000000000        0.0000000000000000        1.0000000000000000     
  0.10937500000000000       0.67187500000000000        2.0000000000000000        2.0000000000000000        0.0000000000000000        1.0000000000000000     
  0.10937500000000000       0.70312500000000000        2.0000000000000000        2.0000000000000000        0.0000000000000000        1.0000000000000000     
  0.10937500000000000       0.73437500000000000        2.0000000000000000        2.0000000000000000        0.0000000000000000        1.0000000000000000     
  0.10937500000000000       0.76562500000000000        2.0000000000000000        2.0000000000000000        0.0000000000000000        1.0000000000000000     
  0.10937500000000000       0.79687500000000000        2.0000000000000000        2.0000000000000000        0.0000000000000000        1.0000000000000000     
  0.10937500000000000       0.82812500000000000        2.0000000000000000        2.0000000000000000        0.0000000000000000        1.0000000000000000     
  0.10937500000000000       0.85937500000000000        2.0000000000000000        2.0000000000000000        0.0000000000000000        1.0000000000000000     
  0.10937500000000000       0.89062500000000000        2.0000000000000000        2.0000000000000000        0.0000000000000000        1.0000000000000000     
  0.10937500000000000       0.92187500000000000        2.0000000000000000        2.0000000000000000        0.0000000000000000        1.0000000000000000     
  0.10937500000000000       0.95312500000000000        2.0000000000000000        2.0000000000000000        0.0000000000000000        1.0000000000000000     
  0.10937500000000000       0.98437500000000000        2.0000000000000000        2.0000000000000000        0.0000000000000000        1.0000000000000000     
  0.10937500000000000        1.0156250000000000        2.0000000000000000        2.0000000000000000        0.0000000000000000        1.0000000000000000     
  0.14062500000000000       -1.5625000000000000E-002   4.0000000000000000        4.0000000000000000        1.0000000000000000        0.0000000000000000     
  0.14062500000000000        1.5625000000000000E-002   2.0000000000000000        2.0000000000000000        1.0000000000000000        0.0000000000000000     
  0.14062500000000000        4.6875000000000000E-002   2.0000000000000000        2.0000000000000000        1.0000000000000000        0.0000000000000000     
  0.14062500000000000        7.8125000000000000E-002   2.0000000000000000        2.0000000000000000        1.0000000000000000        0.0000000000000000     
  0.14062500000000000       0.10937500000000000        2.0000000000000000        2.0000000000000000        1.0000000000000000        0.0000000000000000     
  0.14062500000000000       0.14062500000000000        2.0000000000000000        2.0000000000000000        1.0000000000000000        0.0000000000000000     
  0.14062500000000000       0.17187500000000000        2.0000000000000000        2.0000000000000000        1.0000000000000000        0.0000000000000000     
  0.14062500000000000       0.20312500000000000        2.0000000000000000        2.0000000000000000        1.0000000000000000        0.0000000000000000     
  0.14062500000000000       0.23437500000000000        2.0000000000000000        2.0000000000000000        1.0000000000000000        0.0000000000000000     
  0.14062500000000000       0.26562500000000000        2.0000000000000000        2.0000000000000000        1.0000000000000000        0.0000000000000000     
  0.14062500000000000       0.29687500000000000        2.0000000000000000        2.0000000000000000       0.60000000000000031       0.39999999999999963     
  0.14062500000000000       0.32812500000000000        2.0000000000000000        2.0000000000000000        0.0000000000000000        1.0000000000000000     
  0.14062500000000000       0.35937500000000000        2.0000000000000000        2.0000000000000000        0.0000000000000000        1.0000000000000000     
  0.14062500000000000       0.39062500000000000        2.0000000000000000        2.0000000000000000        0.0000000000000000        1.0000000000000000     
  0.14062500000000000       0.42187500000000000        2.0000000000000000        2.0000000000000000        0.0000000000000000        1.0000000000000000     
  0.14062500000000000       0.45312500000000000        2.0000000000000000        2.0000000000000000        0.0000000000000000        1.0000000000000000     
  0.14062500000000000       0.48437500000000000        2.0000000000000000        2.0000000000000000        0.0000000000000000        1.0000000000000000     
  0.14062500000000000       0.51562500000000000        2.0000000000000000        2.0000000000000000        0.0000000000000000        1.0000000000000000     
  0.14062500000000000       0.54687500000000000        2.0000000000000000        2.0000000000000000        0.0000000000000000        1.0000000000000000     
  0.14062500000000000       0.57812500000000000        2.0000000000000000        2.0000000000000000        0.0000000000000000        1.0000000000000000     