 VARIABLES="X","Y","U1","U2","F1","F2"
 zone i=          34  j=          34  f=point
 SOLUTIONTIME=  0.13750000000000001       STRANDID=          12
  -1.5625000000000000E-002  -1.5625000000000000E-002   2.0000000000000000        2.0000000000000000        1.0000000000000000        0.0000000000000000     
  -1.5625000000000000E-002   1.5625000000000000E-002   2.9978432977395935        2.9978432977395935        1.0000000000000000        0.0000000000000000     
  -1.5625000000000000E-002   4.6875000000000000E-002   2.9935316213132364        2.9935316213132364        1.0000000000000000        0.0000000000000000     
  -1.5625000000000000E-002   7.8125000000000000E-002   2.9892249467449923        2.9892249467449923        1.0000000000000000        0.0000000000000000     
  -1.5625000000000000E-002  0.10937500000000000        2.9849260137267128        2.9849260137267128        1.0000000000000000        0.0000000000000000     
  -1.5625000000000000E-002  0.14062500000000000        2.9806367431409906        2.9806367431409906        1.0000000000000000        0.0000000000000000     
  -1.5625000000000000E-002  0.17187500000000000        2.9763580333796886        2.9763580333796886        1.0000000000000000        0.0000000000000000     
  -1.5625000000000000E-002  0.20312500000000000        2.9720896604557683        2.9720896604557683        1.0000000000000000        0.0000000000000000     
  -1.5625000000000000E-002  0.23437500000000000        2.9678303018588958        2.9678303018588958        1.0000000000000000        0.0000000000000000     
  -1.5625000000000000E-002  0.26562500000000000        2.9635776813719938        2.9635776813719938        1.0000000000000000        0.0000000000000000     
  -1.5625000000000000E-002  0.29687500000000000        2.9601785844289048        2.9288851248182670       0.60000000000000031       0.39999999999999963     
  -1.5625000000000000E-002  0.32812500000000000        2.8241683100424289        2.8241683100424289        0.0000000000000000        1.0000000000000000     
  -1.5625000000000000E-002  0.35937500000000000        2.6801430792322716        2.6801430792322716        0.0000000000000000        1.0000000000000000     
  -1.5625000000000000E-002  0.39062500000000000        2.5470891501001724        2.5470891501001724        0.0000000000000000        1.0000000000000000     
  -1.5625000000000000E-002  0.42187500000000000        2.4289831622281213        2.4289831622281213        0.0000000000000000        1.0000000000000000     
  -1.5625000000000000E-002  0.45312500000000000        2.3280654469815865        2.3280654469815865        0.0000000000000000        1.0000000000000000     
  -1.5625000000000000E-002  0.48437500000000000        2.2448808909715523        2.2448808909715523        0.0000000000000000        1.0000000000000000     
  -1.5625000000000000E-002  0.51562500000000000        2.1785843976715524        2.1785843976715524        0.0000000000000000        1.0000000000000000     
  -1.5625000000000000E-002  0.54687500000000000        2.1273789943070218        2.1273789943070218        0.0000000000000000        1.0000000000000000     
  -1.5625000000000000E-002  0.57812500000000000        2.0889641365274056        2.0889641365274056        0.0000000000000000        1.0000000000000000     
  -1.5625000000000000E-002  0.60937500000000000        2.0609114039727823        2.0609114039727823        0.0000000000000000        1.0000000000000000     
  -1.5625000000000000E-002  0.64062500000000000        2.0409303186080354        2.0409303186080354        0.0000000000000000        1.0000000000000000     
  -1.5625000000000000E-002  0.67187500000000000        2.0270230273118686        2.0270230273118686        0.0000000000000000        1.0000000000000000     
  -1.5625000000000000E-002  0.70312500000000000        2.0175477102671122        2.0175477102671122        0.0000000000000000        1.0000000000000000     
  -1.5625000000000000E-002  0.73437500000000000        2.0112183051181218        2.0112183051181218        0.0000000000000000        1.0000000000000000     
  -1.5625000000000000E-002  0.76562500000000000        2.0070668906467621        2.0070668906467621        0.0000000000000000        1.0000000000000000     
  -1.5625000000000000E-002  0.79687500000000000        2.0043893919547036        2.0043893919547036        0.0000000000000000        1.0000000000000000     
  -1.5625000000000000E-002  0.82812500000000000        2.0026884930565698        2.0026884930565698        0.0000000000000000        1.0000000000000000     
  -1.5625000000000000E-002  0.85937500000000000        2.0016216690974074        2.0016216690974074        0.0000000000000000        1.0000000000000000     
  -1.5625000000000000E-002  0.89062500000000000        2.0009578219234889        2.0009578219234889        0.0000000000000000        1.0000000000000000     
  -1.5625000000000000E-002  0.92187500000000000        2.0005431455949161        2.0005431455949161        0.0000000000000000        1.0000000000000000     
  -1.5625000000000000E-002  0.95312500000000000        2.0002752527414960        2.0002752527414960        0.0000000000000000        1.0000000000000000     
  -1.5625000000000000E-002  0.98437500000000000        2.0000838633289209        2.0000838633289209        0.0000000000000000        1.0000000000000000     
  -1.5625000000000000E-002   1.0156250000000000        2.0000000000000000        2.0000000000000000        0.0000000000000000        1.0000000000000000     
   1.5625000000000000E-002  -1.5625000000000000E-002   3.0021567022604065        3.0021567022604065        1.0000000000000000        0.0000000000000000     
   1.5625000000000000E-002   1.5625000000000000E-002   2.9978432977395935        2.9978432977395935        1.0000000000000000        0.0000000000000000     
   1.5625000000000000E-002   4.6875000000000000E-002   2.9935316213132364        2.9935316213132364        1.0000000000000000        0.0000000000000000     
   1.5625000000000000E-002   7.8125000000000000E-002   2.9892249467449923        2.9892249467449923        1.0000000000000000        0.0000000000000000     
   1.5625000000000000E-002  0.10937500000000000        2.9849260137267128        2.9849260137267128        1.0000000000000000        0.0000000000000000     
   1.5625000000000000E-002  0.14062500000000000        2.9806367431409906        2.9806367431409906        1.0000000000000000        0.0000000000000000     
   1.5625000000000000E-002  0.17187500000000000        2.9763580333796886        2.9763580333796886        1.0000000000000000        0.0000000000000000     
   1.5625000000000000E-002  0.20312500000000000        2.9720896604557683        2.9720896604557683        1.0000000000000000        0.0000000000000000     
   1.5625000000000000E-002  0.23437500000000000        2.9678303018588958        2.9678303018588958        1.0000000000000000        0.0000000000000000     
   1.5625000000000000E-002  0.26562500000000000        2.9635776813719938        2.9635776813719938        1.0000000000000000        0.0000000000000000     
   1.5625000000000000E-002  0.29687500000000000        2.9601785844289048        2.9288851248182670       0.60000000000000031       0.39999999999999963     
   1.5625000000000000E-002  0.32812500000000000        2.8241683100424289        2.8241683100424289        0.0000000000000000        1.0000000000000000     
   1.5625000000000000E-002  0.35937500000000000        2.6801430792322716        2.6801430792322716        0.0000000000000000        1.0000000000000000     
   1.5625000000000000E-002  0.39062500000000000        2.5470891501001724        2.5470891501001724        0.0000000000000000        1.0000000000000000     
   1.5625000000000000E-002  0.42187500000000000        2.4289831622281213        2.4289831622281213        0.0000000000000000        1.0000000000000000     
   1.5625000000000000E-002  0.45312500000000000        2.3280654469815865        2.3280654469815865        0.0000000000000000        1.0000000000000000     
   1.5625000000000000E-002  0.48437500000000000        2.2448808909715523        2.2448808909715523        0.0000000000000000        1.0000000000000000     
   1.5625000000000000E-002  0.51562500000000000        2.1785843976715524        2.1785843976715524        0.0000000000000000        1.0000000000000000     
   1.5625000000000000E-002  0.54687500000000000        2.1273789943070218        2.1273789943070218        0.0000000000000000        1.0000000000000000     
   1.5625000000000000E-002  0.57812500000000000        2.0889641365274056        2.0889641365274056        0.0000000000000000        1.0000000000000000     
   1.5625000000000000E-002  0.60937500000000000        2.0609114039727823        2.0609114039727823        0.0000000000000000        1.0000000000000000     
   1.5625000000000000E-002  0.64062500000000000        2.0409303186080354        2.0409303186080354        0.0000000000000000        1.0000000000000000     
   1.5625000000000000E-002  0.67187500000000000        2.0270230273118686        2.0270230273118686        0.0000000000000000        1.0000000000000000     
   1.5625000000000000E-002  0.70312500000000000        2.0175477102671122        2.0175477102671122        0.0000000000000000        1.0000000000000000     
   1.5625000000000000E-002  0.73437500000000000        2.0112183051181218        2.0112183051181218        0.0000000000000000        1.0000000000000000     
   1.5625000000000000E-002  0.76562500000000000        2.0070668906467621        2.0070668906467621        0.0000000000000000        1.0000000000000000     
   1.5625000000000000E-002  0.79687500000000000        2.0043893919547036        2.0043893919547036        0.0000000000000000        1.0000000000000000     
   1.5625000000000000E-002  0.82812500000000000        2.0026884930565698        2.0026884930565698        0.0000000000000000        1.0000000000000000     
   1.5625000000000000E-002  0.85937500000000000        2.0016216690974074        2.0016216690974074        0.0000000000000000        1.0000000000000000     
   1.5625000000000000E-002  0.89062500000000000        2.0009578219234889        2.0009578219234889        0.0000000000000000        1.0000000000000000     
   1.5625000000000000E-002  0.92187500000000000        2.0005431455949161        2.0005431455949161        0.0000000000000000        1.0000000000000000     
   1.5625000000000000E-002  0.95312500000000000        2.0002752527414960        2.0002752527414960        0.0000000000000000        1.0000000000000000     
   1.5625000000000000E-002  0.98437500000000000        2.0000838633289209        2.0000838633289209        0.0000000000000000        1.0000000000000000     
   1.5625000000000000E-002   1.0156250000000000        1.9999161366710791        1.9999161366710791        0.0000000000000000        1.0000000000000000     
   4.6875000000000000E-002  -1.5625000000000000E-002   3.0021567022604065        3.0021567022604065        1.0000000000000000        0.0000000000000000     
   4.6875000000000000E-002   1.5625000000000000E-002   2.9978432977395935        2.9978432977395935        1.0000000000000000        0.0000000000000000     
   4.6875000000000000E-002   4.6875000000000000E-002   2.9935316213132364        2.9935316213132364        1.0000000000000000        0.0000000000000000     
   4.6875000000000000E-002   7.8125000000000000E-002   2.9892249467449927        2.9892249467449927        1.0000000000000000        0.0000000000000000     
   4.6875000000000000E-002  0.10937500000000000        2.9849260137267128        2.9849260137267128        1.0000000000000000        0.0000000000000000     
   4.6875000000000000E-002  0.14062500000000000        2.9806367431409906        2.9806367431409906        1.0000000000000000        0.0000000000000000     
   4.6875000000000000E-002  0.17187500000000000        2.9763580333796886        2.9763580333796886        1.0000000000000000        0.0000000000000000     
   4.6875000000000000E-002  0.20312500000000000        2.9720896604557683        2.9720896604557683        1.0000000000000000        0.0000000000000000     
   4.6875000000000000E-002  0.23437500000000000        2.9678303018588954        2.9678303018588954        1.0000000000000000        0.0000000000000000     
   4.6875000000000000E-002  0.26562500000000000        2.9635776813719938        2.9635776813719938        1.0000000000000000        0.0000000000000000     
   4.6875000000000000E-002  0.29687500000000000        2.9601785844289048        2.9288851248182675       0.60000000000000031       0.39999999999999963     
   4.6875000000000000E-002  0.32812500000000000        2.8241683100424289        2.8241683100424289        0.0000000000000000        1.0000000000000000     
   4.6875000000000000E-002  0.35937500000000000        2.6801430792322716        2.6801430792322716        0.0000000000000000        1.0000000000000000     
   4.6875000000000000E-002  0.39062500000000000        2.5470891501001724        2.5470891501001724        0.0000000000000000        1.0000000000000000     
   4.6875000000000000E-002  0.42187500000000000        2.4289831622281213        2.4289831622281213        0.0000000000000000        1.0000000000000000     
   4.6875000000000000E-002  0.45312500000000000        2.3280654469815865        2.3280654469815865        0.0000000000000000        1.0000000000000000     
   4.6875000000000000E-002  0.48437500000000000        2.2448808909715523        2.2448808909715523        0.0000000000000000        1.0000000000000000     
   4.6875000000000000E-002  0.51562500000000000        2.1785843976715524        2.1785843976715524        0.0000000000000000        1.0000000000000000     
   4.6875000000000000E-002  0.54687500000000000        2.1273789943070218        2.1273789943070218        0.0000000000000000        1.0000000000000000     
   4.6875000000000000E-002  0.57812500000000000        2.0889641365274056        2.0889641365274056        0.0000000000000000        1.0000000000000000     
   4.6875000000000000E-002  0.60937500000000000        2.0609114039727823        2.0609114039727823        0.0000000000000000        1.0000000000000000     
   4.6875000000000000E-002  0.64062500000000000        2.0409303186080354        2.0409303186080354        0.0000000000000000        1.0000000000000000     
   4.6875000000000000E-002  0.67187500000000000        2.0270230273118686        2.0270230273118686        0.0000000000000000        1.0000000000000000     
   4.6875000000000000E-002  0.70312500000000000        2.0175477102671122        2.0175477102671122        0.0000000000000000        1.0000000000000000     
   4.6875000000000000E-002  0.73437500000000000        2.0112183051181218        2.0112183051181218        0.0000000000000000        1.0000000000000000     
   4.6875000000000000E-002  0.76562500000000000        2.0070668906467621        2.0070668906467621        0.0000000000000000        1.0000000000000000     
   4.6875000000000000E-002  0.79687500000000000        2.0043893919547036        2.0043893919547036        0.0000000000000000        1.0000000000000000     
   4.6875000000000000E-002  0.82812500000000000        2.0026884930565698        2.0026884930565698        0.0000000000000000        1.0000000000000000     
   4.6875000000000000E-002  0.85937500000000000        2.0016216690974074        2.0016216690974074        0.0000000000000000        1.0000000000000000     
   4.6875000000000000E-002  0.89062500000000000        2.0009578219234889        2.0009578219234889        0.0000000000000000        1.0000000000000000     
   4.6875000000000000E-002  0.92187500000000000        2.0005431455949161        2.0005431455949161        0.0000000000000000        1.0000000000000000     
   4.6875000000000000E-002  0.95312500000000000        2.0002752527414960        2.0002752527414960        0.0000000000000000        1.0000000000000000     
   4.6875000000000000E-002  0.98437500000000000        2.0000838633289209        2.0000838633289209        0.0000000000000000        1.0000000000000000     
   4.6875000000000000E-002   1.0156250000000000        1.9999161366710791        1.9999161366710791        0.0000000000000000        1.0000000000000000     
   7.8125000000000000E-002  -1.5625000000000000E-002   3.0021567022604065        3.0021567022604065        1.0000000000000000        0.0000000000000000     
   7.8125000000000000E-002   1.5625000000000000E-002   2.9978432977395935        2.9978432977395935        1.0000000000000000        0.0000000000000000     
   7.8125000000000000E-002   4.6875000000000000E-002   2.9935316213132364        2.9935316213132364        1.0000000000000000        0.0000000000000000     
   7.8125000000000000E-002   7.8125000000000000E-002   2.9892249467449923        2.9892249467449923        1.0000000000000000        0.0000000000000000     
   7.8125000000000000E-002  0.10937500000000000        2.9849260137267128        2.9849260137267128        1.0000000000000000        0.0000000000000000     
   7.8125000000000000E-002  0.14062500000000000        2.9806367431409906        2.9806367431409906        1.0000000000000000        0.0000000000000000     
   7.8125000000000000E-002  0.17187500000000000        2.9763580333796886        2.9763580333796886        1.0000000000000000        0.0000000000000000     
   7.8125000000000000E-002  0.20312500000000000        2.9720896604557683        2.9720896604557683        1.0000000000000000        0.0000000000000000     
   7.8125000000000000E-002  0.23437500000000000        2.9678303018588958        2.9678303018588958        1.0000000000000000        0.0000000000000000     
   7.8125000000000000E-002  0.26562500000000000        2.9635776813719938        2.9635776813719938        1.0000000000000000        0.0000000000000000     
   7.8125000000000000E-002  0.29687500000000000        2.9601785844289044        2.9288851248182692       0.60000000000000031       0.39999999999999963     
   7.8125000000000000E-002  0.32812500000000000        2.8241683100424284        2.8241683100424284        0.0000000000000000        1.0000000000000000     
   7.8125000000000000E-002  0.35937500000000000        2.6801430792322716        2.6801430792322716        0.0000000000000000        1.0000000000000000     
   7.8125000000000000E-002  0.39062500000000000        2.5470891501001724        2.5470891501001724        0.0000000000000000        1.0000000000000000     
   7.8125000000000000E-002  0.42187500000000000        2.4289831622281213        2.4289831622281213        0.0000000000000000        1.0000000000000000     
   7.8125000000000000E-002  0.45312500000000000        2.3280654469815865        2.3280654469815865        0.0000000000000000        1.0000000000000000     
   7.8125000000000000E-002  0.48437500000000000        2.2448808909715523        2.2448808909715523        0.0000000000000000        1.0000000000000000     
   7.8125000000000000E-002  0.51562500000000000        2.1785843976715524        2.1785843976715524        0.0000000000000000        1.0000000000000000     
   7.8125000000000000E-002  0.54687500000000000        2.1273789943070218        2.1273789943070218        0.0000000000000000        1.0000000000000000     
   7.8125000000000000E-002  0.57812500000000000        2.0889641365274061        2.0889641365274061        0.0000000000000000        1.0000000000000000     
   7.8125000000000000E-002  0.60937500000000000        2.0609114039727823        2.0609114039727823        0.0000000000000000        1.0000000000000000     
   7.8125000000000000E-002  0.64062500000000000        2.0409303186080354        2.0409303186080354        0.0000000000000000        1.0000000000000000     
   7.8125000000000000E-002  0.67187500000000000        2.0270230273118686        2.0270230273118686        0.0000000000000000        1.0000000000000000     
   7.8125000000000000E-002  0.70312500000000000        2.0175477102671122        2.0175477102671122        0.0000000000000000        1.0000000000000000     
   7.8125000000000000E-002  0.73437500000000000        2.0112183051181218        2.0112183051181218        0.0000000000000000        1.0000000000000000     
   7.8125000000000000E-002  0.76562500000000000        2.0070668906467621        2.0070668906467621        0.0000000000000000        1.0000000000000000     
   7.8125000000000000E-002  0.79687500000000000        2.0043893919547036        2.0043893919547036        0.0000000000000000        1.0000000000000000     
   7.8125000000000000E-002  0.82812500000000000        2.0026884930565698        2.0026884930565698        0.0000000000000000        1.0000000000000000     
   7.8125000000000000E-002  0.85937500000000000        2.0016216690974078        2.0016216690974078        0.0000000000000000        1.0000000000000000     
   7.8125000000000000E-002  0.89062500000000000        2.0009578219234889        2.0009578219234889        0.0000000000000000        1.0000000000000000     
   7.8125000000000000E-002  0.92187500000000000        2.0005431455949161        2.0005431455949161        0.0000000000000000        1.0000000000000000     
   7.8125000000000000E-002  0.95312500000000000        2.0002752527414960        2.0002752527414960        0.0000000000000000        1.0000000000000000     
   7.8125000000000000E-002  0.98437500000000000        2.0000838633289209        2.0000838633289209        0.0000000000000000        1.0000000000000000     
   7.8125000000000000E-002   1.0156250000000000        1.9999161366710791        1.9999161366710791        0.0000000000000000        1.0000000000000000     
  0.10937500000000000       -1.5625000000000000E-002   3.0021567022604065        3.0021567022604065        1.0000000000000000        0.0000000000000000     
  0.10937500000000000        1.5625000000000000E-002   2.9978432977395935        2.9978432977395935        1.0000000000000000        0.0000000000000000     
  0.10937500000000000        4.6875000000000000E-002   2.9935316213132364        2.9935316213132364        1.0000000000000000        0.0000000000000000     
  0.10937500000000000        7.8125000000000000E-002   2.9892249467449923        2.9892249467449923        1.0000000000000000        0.0000000000000000     
  0.10937500000000000       0.10937500000000000        2.9849260137267128        2.9849260137267128        1.0000000000000000        0.0000000000000000     
  0.10937500000000000       0.14062500000000000        2.9806367431409906        2.9806367431409906        1.0000000000000000        0.0000000000000000     
  0.10937500000000000       0.17187500000000000        2.9763580333796886        2.9763580333796886        1.0000000000000000        0.0000000000000000     
  0.10937500000000000       0.20312500000000000        2.9720896604557683        2.9720896604557683        1.0000000000000000        0.0000000000000000     
  0.10937500000000000       0.23437500000000000        2.9678303018588954        2.9678303018588954        1.0000000000000000        0.0000000000000000     
  0.10937500000000000       0.26562500000000000        2.9635776813719938        2.9635776813719938        1.0000000000000000        0.0000000000000000     
  0.10937500000000000       0.29687500000000000        2.9601785844289048        2.9288851248182648       0.60000000000000031       0.39999999999999963     
  0.10937500000000000       0.32812500000000000        2.8241683100424289        2.8241683100424289        0.0000000000000000        1.0000000000000000     
  0.10937500000000000       0.35937500000000000        2.6801430792322720        2.6801430792322720        0.0000000000000000        1.0000000000000000     
  0.10937500000000000       0.39062500000000000        2.5470891501001724        2.5470891501001724        0.0000000000000000        1.0000000000000000     
  0.10937500000000000       0.42187500000000000        2.4289831622281217        2.4289831622281217        0.0000000000000000        1.0000000000000000     
  0.10937500000000000       0.45312500000000000        2.3280654469815865        2.3280654469815865        0.0000000000000000        1.0000000000000000     
  0.10937500000000000       0.48437500000000000        2.2448808909715523        2.2448808909715523        0.0000000000000000        1.0000000000000000     
  0.10937500000000000       0.51562500000000000        2.1785843976715524        2.1785843976715524        0.0000000000000000        1.0000000000000000     
  0.10937500000000000       0.54687500000000000        2.1273789943070218        2.1273789943070218        0.0000000000000000        1.0000000000000000     
  0.10937500000000000       0.57812500000000000        2.0889641365274061        2.0889641365274061        0.0000000000000000        1.0000000000000000     
  0.10937500000000000       0.60937500000000000        2.0609114039727823        2.0609114039727823        0.0000000000000000        1.0000000000000000     
  0.10937500000000000       0.64062500000000000        2.0409303186080354        2.0409303186080354        0.0000000000000000        1.0000000000000000     
  0.10937500000000000       0.67187500000000000        2.0270230273118686        2.0270230273118686        0.0000000000000000        1.0000000000000000     
  0.10937500000000000       0.70312500000000000        2.0175477102671122        2.0175477102671122        0.0000000000000000        1.0000000000000000     
  0.10937500000000000       0.73437500000000000        2.0112183051181218        2.0112183051181218        0.0000000000000000        1.0000000000000000     
  0.10937500000000000       0.76562500000000000        2.0070668906467617        2.0070668906467617        0.0000000000000000        1.0000000000000000     
  0.10937500000000000       0.79687500000000000        2.0043893919547036        2.0043893919547036        0.0000000000000000        1.0000000000000000     
  0.10937500000000000       0.82812500000000000        2.0026884930565698        2.0026884930565698        0.0000000000000000        1.0000000000000000     
  0.10937500000000000       0.85937500000000000        2.0016216690974078        2.0016216690974078        0.0000000000000000        1.0000000000000000     
  0.10937500000000000       0.89062500000000000        2.0009578219234889        2.0009578219234889        0.0000000000000000        1.0000000000000000     
  0.10937500000000000       0.92187500000000000        2.0005431455949161        2.0005431455949161        0.0000000000000000        1.0000000000000000     
  0.10937500000000000       0.95312500000000000        2.0002752527414960        2.0002752527414960        0.0000000000000000        1.0000000000000000     
  0.10937500000000000       0.98437500000000000        2.0000838633289209        2.0000838633289209        0.0000000000000000        1.0000000000000000     
  0.10937500000000000        1.0156250000000000        1.9999161366710791        1.9999161366710791        0.0000000000000000        1.0000000000000000     
  0.14062500000000000       -1.5625000000000000E-002   3.0021567022604065        3.0021567022604065        1.0000000000000000        0.0000000000000000     
  0.14062500000000000        1.5625000000000000E-002   2.9978432977395935        2.9978432977395935        1.0000000000000000        0.0000000000000000     
  0.14062500000000000        4.6875000000000000E-002   2.9935316213132364        2.9935316213132364        1.0000000000000000        0.0000000000000000     
  0.14062500000000000        7.8125000000000000E-002   2.9892249467449927        2.9892249467449927        1.0000000000000000        0.0000000000000000     
  0.14062500000000000       0.10937500000000000        2.9849260137267128        2.9849260137267128        1.0000000000000000        0.0000000000000000     
  0.14062500000000000       0.14062500000000000        2.9806367431409906        2.9806367431409906        1.0000000000000000        0.0000000000000000     
  0.14062500000000000       0.17187500000000000        2.9763580333796886        2.9763580333796886        1.0000000000000000        0.0000000000000000     
  0.14062500000000000       0.20312500000000000        2.9720896604557683        2.9720896604557683        1.0000000000000000        0.0000000000000000     
  0.14062500000000000       0.23437500000000000        2.9678303018588958        2.9678303018588958        1.0000000000000000        0.0000000000000000     
  0.14062500000000000       0.26562500000000000        2.9635776813719938        2.9635776813719938        1.0000000000000000        0.0000000000000000     
  0.14062500000000000       0.29687500000000000        2.9601785844289048        2.9288851248182648       0.60000000000000031       0.39999999999999963     
  0.14062500000000000       0.32812500000000000        2.8241683100424289        2.8241683100424289        0.0000000000000000        1.0000000000000000     
  0.14062500000000000       0.35937500000000000        2.6801430792322720        2.6801430792322720        0.0000000000000000        1.0000000000000000     
  0.14062500000000000       0.39062500000000000        2.5470891501001729        2.5470891501001729        0.0000000000000000        1.0000000000000000     
  0.14062500000000000       0.42187500000000000        2.4289831622281217        2.4289831622281217        0.0000000000000000        1.0000000000000000     
  0.14062500000000000       0.45312500000000000        2.3280654469815869        2.3280654469815869        0.0000000000000000        1.0000000000000000     
  0.14062500000000000       0.48437500000000000        2.2448808909715527        2.2448808909715527        0.0000000000000000        1.0000000000000000     
  0.14062500000000000       0.51562500000000000        2.1785843976715524        2.1785843976715524        0.0000000000000000        1.0000000000000000     
  0.14062500000000000       0.54687500000000000        2.1273789943070218        2.1273789943070218        0.0000000000000000        1.0000000000000000     
  0.14062500000000000       0.57812500000000000        2.0889641365274061        2.0889641365274061        0.0000000000000000        1.0000000000000000     