 VARIABLES="X","Y","U1","U2","F1","F2"
 zone i=          34  j=          34  f=point
 SOLUTIONTIME=  0.10000000000000001       STRANDID=           9
  -1.5625000000000000E-002  -1.5625000000000000E-002   2.0000000000000000        2.0000000000000000        1.0000000000000000        0.0000000000000000     
  -1.5625000000000000E-002   1.5625000000000000E-002   2.9976460908996150        2.9976460908996150        1.0000000000000000        0.0000000000000000     
  -1.5625000000000000E-002   4.6875000000000000E-002   2.9929609187425723        2.9929609187425723        1.0000000000000000        0.0000000000000000     
  -1.5625000000000000E-002   7.8125000000000000E-002   2.9883412830856950        2.9883412830856950        1.0000000000000000        0.0000000000000000     
  -1.5625000000000000E-002  0.10937500000000000        2.9838231184149584        2.9838231184149584        1.0000000000000000        0.0000000000000000     
  -1.5625000000000000E-002  0.14062500000000000        2.9794315977223569        2.9794315977223569        1.0000000000000000        0.0000000000000000     
  -1.5625000000000000E-002  0.17187500000000000        2.9751784632502898        2.9751784632502898        1.0000000000000000        0.0000000000000000     
  -1.5625000000000000E-002  0.20312500000000000        2.9710607772312132        2.9710607772312132        1.0000000000000000        0.0000000000000000     
  -1.5625000000000000E-002  0.23437500000000000        2.9670612339871725        2.9670612339871725        1.0000000000000000        0.0000000000000000     
  -1.5625000000000000E-002  0.26562500000000000        2.9631499999107924        2.9631499999107924        1.0000000000000000        0.0000000000000000     
  -1.5625000000000000E-002  0.29687500000000000        2.9600603016910050        2.9231353579000654       0.60000000000000031       0.39999999999999963     
  -1.5625000000000000E-002  0.32812500000000000        2.7985572132750391        2.7985572132750391        0.0000000000000000        1.0000000000000000     
  -1.5625000000000000E-002  0.35937500000000000        2.6302987405556419        2.6302987405556419        0.0000000000000000        1.0000000000000000     
  -1.5625000000000000E-002  0.39062500000000000        2.4804150118615187        2.4804150118615187        0.0000000000000000        1.0000000000000000     
  -1.5625000000000000E-002  0.42187500000000000        2.3540918363990526        2.3540918363990526        0.0000000000000000        1.0000000000000000     
  -1.5625000000000000E-002  0.45312500000000000        2.2528599063021484        2.2528599063021484        0.0000000000000000        1.0000000000000000     
  -1.5625000000000000E-002  0.48437500000000000        2.1753306858986576        2.1753306858986576        0.0000000000000000        1.0000000000000000     
  -1.5625000000000000E-002  0.51562500000000000        2.1183117135564498        2.1183117135564498        0.0000000000000000        1.0000000000000000     
  -1.5625000000000000E-002  0.54687500000000000        2.0778651755489972        2.0778651755489972        0.0000000000000000        1.0000000000000000     
  -1.5625000000000000E-002  0.57812500000000000        2.0500846582061025        2.0500846582061025        0.0000000000000000        1.0000000000000000     
  -1.5625000000000000E-002  0.60937500000000000        2.0315460171624791        2.0315460171624791        0.0000000000000000        1.0000000000000000     
  -1.5625000000000000E-002  0.64062500000000000        2.0194904913528147        2.0194904913528147        0.0000000000000000        1.0000000000000000     
  -1.5625000000000000E-002  0.67187500000000000        2.0118311761127052        2.0118311761127052        0.0000000000000000        1.0000000000000000     
  -1.5625000000000000E-002  0.70312500000000000        2.0070661049564529        2.0070661049564529        0.0000000000000000        1.0000000000000000     
  -1.5625000000000000E-002  0.73437500000000000        2.0041575205076332        2.0041575205076332        0.0000000000000000        1.0000000000000000     
  -1.5625000000000000E-002  0.76562500000000000        2.0024125688357968        2.0024125688357968        0.0000000000000000        1.0000000000000000     
  -1.5625000000000000E-002  0.79687500000000000        2.0013820389094876        2.0013820389094876        0.0000000000000000        1.0000000000000000     
  -1.5625000000000000E-002  0.82812500000000000        2.0007819837539849        2.0007819837539849        0.0000000000000000        1.0000000000000000     
  -1.5625000000000000E-002  0.85937500000000000        2.0004368217965780        2.0004368217965780        0.0000000000000000        1.0000000000000000     
  -1.5625000000000000E-002  0.89062500000000000        2.0002399678677580        2.0002399678677580        0.0000000000000000        1.0000000000000000     
  -1.5625000000000000E-002  0.92187500000000000        2.0001275762560335        2.0001275762560335        0.0000000000000000        1.0000000000000000     
  -1.5625000000000000E-002  0.95312500000000000        2.0000614788529725        2.0000614788529725        0.0000000000000000        1.0000000000000000     
  -1.5625000000000000E-002  0.98437500000000000        2.0000182104385611        2.0000182104385611        0.0000000000000000        1.0000000000000000     
  -1.5625000000000000E-002   1.0156250000000000        2.0000000000000000        2.0000000000000000        0.0000000000000000        1.0000000000000000     
   1.5625000000000000E-002  -1.5625000000000000E-002   3.0023539091003850        3.0023539091003850        1.0000000000000000        0.0000000000000000     
   1.5625000000000000E-002   1.5625000000000000E-002   2.9976460908996150        2.9976460908996150        1.0000000000000000        0.0000000000000000     
   1.5625000000000000E-002   4.6875000000000000E-002   2.9929609187425723        2.9929609187425723        1.0000000000000000        0.0000000000000000     
   1.5625000000000000E-002   7.8125000000000000E-002   2.9883412830856950        2.9883412830856950        1.0000000000000000        0.0000000000000000     
   1.5625000000000000E-002  0.10937500000000000        2.9838231184149584        2.9838231184149584        1.0000000000000000        0.0000000000000000     
   1.5625000000000000E-002  0.14062500000000000        2.9794315977223569        2.9794315977223569        1.0000000000000000        0.0000000000000000     
   1.5625000000000000E-002  0.17187500000000000        2.9751784632502898        2.9751784632502898        1.0000000000000000        0.0000000000000000     
   1.5625000000000000E-002  0.20312500000000000        2.9710607772312132        2.9710607772312132        1.0000000000000000        0.0000000000000000     
   1.5625000000000000E-002  0.23437500000000000        2.9670612339871725        2.9670612339871725        1.0000000000000000        0.0000000000000000     
   1.5625000000000000E-002  0.26562500000000000        2.9631499999107924        2.9631499999107924        1.0000000000000000        0.0000000000000000     
   1.5625000000000000E-002  0.29687500000000000        2.9600603016910050        2.9231353579000654       0.60000000000000031       0.39999999999999963     
   1.5625000000000000E-002  0.32812500000000000        2.7985572132750391        2.7985572132750391        0.0000000000000000        1.0000000000000000     
   1.5625000000000000E-002  0.35937500000000000        2.6302987405556419        2.6302987405556419        0.0000000000000000        1.0000000000000000     
   1.5625000000000000E-002  0.39062500000000000        2.4804150118615187        2.4804150118615187        0.0000000000000000        1.0000000000000000     
   1.5625000000000000E-002  0.42187500000000000        2.3540918363990526        2.3540918363990526        0.0000000000000000        1.0000000000000000     
   1.5625000000000000E-002  0.45312500000000000        2.2528599063021484        2.2528599063021484        0.0000000000000000        1.0000000000000000     
   1.5625000000000000E-002  0.48437500000000000        2.1753306858986576        2.1753306858986576        0.0000000000000000        1.0000000000000000     
   1.5625000000000000E-002  0.51562500000000000        2.1183117135564498        2.1183117135564498        0.0000000000000000        1.0000000000000000     
   1.5625000000000000E-002  0.54687500000000000        2.0778651755489972        2.0778651755489972        0.0000000000000000        1.0000000000000000     
   1.5625000000000000E-002  0.57812500000000000        2.0500846582061025        2.0500846582061025        0.0000000000000000        1.0000000000000000     
   1.5625000000000000E-002  0.60937500000000000        2.0315460171624791        2.0315460171624791        0.0000000000000000        1.0000000000000000     
   1.5625000000000000E-002  0.64062500000000000        2.0194904913528147        2.0194904913528147        0.0000000000000000        1.0000000000000000     
   1.5625000000000000E-002  0.67187500000000000        2.0118311761127052        2.0118311761127052        0.0000000000000000        1.0000000000000000     
   1.5625000000000000E-002  0.70312500000000000        2.0070661049564529        2.0070661049564529        0.0000000000000000        1.0000000000000000     
   1.5625000000000000E-002  0.73437500000000000        2.0041575205076332        2.0041575205076332        0.0000000000000000        1.0000000000000000     
   1.5625000000000000E-002  0.76562500000000000        2.0024125688357968        2.0024125688357968        0.0000000000000000        1.0000000000000000     
   1.5625000000000000E-002  0.79687500000000000        2.0013820389094876        2.0013820389094876        0.0000000000000000        1.0000000000000000     
   1.5625000000000000E-002  0.82812500000000000        2.0007819837539849        2.0007819837539849        0.0000000000000000        1.0000000000000000     
   1.5625000000000000E-002  0.85937500000000000        2.0004368217965780        2.0004368217965780        0.0000000000000000        1.0000000000000000     
   1.5625000000000000E-002  0.89062500000000000        2.0002399678677580        2.0002399678677580        0.0000000000000000        1.0000000000000000     
   1.5625000000000000E-002  0.92187500000000000        2.0001275762560335        2.0001275762560335        0.0000000000000000        1.0000000000000000     
   1.5625000000000000E-002  0.95312500000000000        2.0000614788529725        2.0000614788529725        0.0000000000000000        1.0000000000000000     
   1.5625000000000000E-002  0.98437500000000000        2.0000182104385611        2.0000182104385611        0.0000000000000000        1.0000000000000000     
   1.5625000000000000E-002   1.0156250000000000        1.9999817895614389        1.9999817895614389        0.0000000000000000        1.0000000000000000     
   4.6875000000000000E-002  -1.5625000000000000E-002   3.0023539091003850        3.0023539091003850        1.0000000000000000        0.0000000000000000     
   4.6875000000000000E-002   1.5625000000000000E-002   2.9976460908996150        2.9976460908996150        1.0000000000000000        0.0000000000000000     
   4.6875000000000000E-002   4.6875000000000000E-002   2.9929609187425723        2.9929609187425723        1.0000000000000000        0.0000000000000000     
   4.6875000000000000E-002   7.8125000000000000E-002   2.9883412830856950        2.9883412830856950        1.0000000000000000        0.0000000000000000     
   4.6875000000000000E-002  0.10937500000000000        2.9838231184149584        2.9838231184149584        1.0000000000000000        0.0000000000000000     
   4.6875000000000000E-002  0.14062500000000000        2.9794315977223569        2.9794315977223569        1.0000000000000000        0.0000000000000000     
   4.6875000000000000E-002  0.17187500000000000        2.9751784632502898        2.9751784632502898        1.0000000000000000        0.0000000000000000     
   4.6875000000000000E-002  0.20312500000000000        2.9710607772312132        2.9710607772312132        1.0000000000000000        0.0000000000000000     
   4.6875000000000000E-002  0.23437500000000000        2.9670612339871725        2.9670612339871725        1.0000000000000000        0.0000000000000000     
   4.6875000000000000E-002  0.26562500000000000        2.9631499999107924        2.9631499999107924        1.0000000000000000        0.0000000000000000     
   4.6875000000000000E-002  0.29687500000000000        2.9600603016910050        2.9231353579000658       0.60000000000000031       0.39999999999999963     
   4.6875000000000000E-002  0.32812500000000000        2.7985572132750391        2.7985572132750391        0.0000000000000000        1.0000000000000000     
   4.6875000000000000E-002  0.35937500000000000        2.6302987405556419        2.6302987405556419        0.0000000000000000        1.0000000000000000     
   4.6875000000000000E-002  0.39062500000000000        2.4804150118615187        2.4804150118615187        0.0000000000000000        1.0000000000000000     
   4.6875000000000000E-002  0.42187500000000000        2.3540918363990531        2.3540918363990531        0.0000000000000000        1.0000000000000000     
   4.6875000000000000E-002  0.45312500000000000        2.2528599063021484        2.2528599063021484        0.0000000000000000        1.0000000000000000     
   4.6875000000000000E-002  0.48437500000000000        2.1753306858986576        2.1753306858986576        0.0000000000000000        1.0000000000000000     
   4.6875000000000000E-002  0.51562500000000000        2.1183117135564498        2.1183117135564498        0.0000000000000000        1.0000000000000000     
   4.6875000000000000E-002  0.54687500000000000        2.0778651755489972        2.0778651755489972        0.0000000000000000        1.0000000000000000     
   4.6875000000000000E-002  0.57812500000000000        2.0500846582061025        2.0500846582061025        0.0000000000000000        1.0000000000000000     
   4.6875000000000000E-002  0.60937500000000000        2.0315460171624791        2.0315460171624791        0.0000000000000000        1.0000000000000000     
   4.6875000000000000E-002  0.64062500000000000        2.0194904913528147        2.0194904913528147        0.0000000000000000        1.0000000000000000     
   4.6875000000000000E-002  0.67187500000000000        2.0118311761127052        2.0118311761127052        0.0000000000000000        1.0000000000000000     
   4.6875000000000000E-002  0.70312500000000000        2.0070661049564529        2.0070661049564529        0.0000000000000000        1.0000000000000000     
   4.6875000000000000E-002  0.73437500000000000        2.0041575205076332        2.0041575205076332        0.0000000000000000        1.0000000000000000     
   4.6875000000000000E-002  0.76562500000000000        2.0024125688357968        2.0024125688357968        0.0000000000000000        1.0000000000000000     
   4.6875000000000000E-002  0.79687500000000000        2.0013820389094876        2.0013820389094876        0.0000000000000000        1.0000000000000000     
   4.6875000000000000E-002  0.82812500000000000        2.0007819837539849        2.0007819837539849        0.0000000000000000        1.0000000000000000     
   4.6875000000000000E-002  0.85937500000000000        2.0004368217965780        2.0004368217965780        0.0000000000000000        1.0000000000000000     
   4.6875000000000000E-002  0.89062500000000000        2.0002399678677580        2.0002399678677580        0.0000000000000000        1.0000000000000000     
   4.6875000000000000E-002  0.92187500000000000        2.0001275762560335        2.0001275762560335        0.0000000000000000        1.0000000000000000     
   4.6875000000000000E-002  0.95312500000000000        2.0000614788529725        2.0000614788529725        0.0000000000000000        1.0000000000000000     
   4.6875000000000000E-002  0.98437500000000000        2.0000182104385611        2.0000182104385611        0.0000000000000000        1.0000000000000000     
   4.6875000000000000E-002   1.0156250000000000        1.9999817895614389        1.9999817895614389        0.0000000000000000        1.0000000000000000     
   7.8125000000000000E-002  -1.5625000000000000E-002   3.0023539091003855        3.0023539091003855        1.0000000000000000        0.0000000000000000     
   7.8125000000000000E-002   1.5625000000000000E-002   2.9976460908996145        2.9976460908996145        1.0000000000000000        0.0000000000000000     
   7.8125000000000000E-002   4.6875000000000000E-002   2.9929609187425723        2.9929609187425723        1.0000000000000000        0.0000000000000000     
   7.8125000000000000E-002   7.8125000000000000E-002   2.9883412830856950        2.9883412830856950        1.0000000000000000        0.0000000000000000     
   7.8125000000000000E-002  0.10937500000000000        2.9838231184149588        2.9838231184149588        1.0000000000000000        0.0000000000000000     
   7.8125000000000000E-002  0.14062500000000000        2.9794315977223569        2.9794315977223569        1.0000000000000000        0.0000000000000000     
   7.8125000000000000E-002  0.17187500000000000        2.9751784632502898        2.9751784632502898        1.0000000000000000        0.0000000000000000     
   7.8125000000000000E-002  0.20312500000000000        2.9710607772312132        2.9710607772312132        1.0000000000000000        0.0000000000000000     
   7.8125000000000000E-002  0.23437500000000000        2.9670612339871725        2.9670612339871725        1.0000000000000000        0.0000000000000000     
   7.8125000000000000E-002  0.26562500000000000        2.9631499999107924        2.9631499999107924        1.0000000000000000        0.0000000000000000     
   7.8125000000000000E-002  0.29687500000000000        2.9600603016910045        2.9231353579000676       0.60000000000000031       0.39999999999999963     
   7.8125000000000000E-002  0.32812500000000000        2.7985572132750391        2.7985572132750391        0.0000000000000000        1.0000000000000000     
   7.8125000000000000E-002  0.35937500000000000        2.6302987405556419        2.6302987405556419        0.0000000000000000        1.0000000000000000     
   7.8125000000000000E-002  0.39062500000000000        2.4804150118615187        2.4804150118615187        0.0000000000000000        1.0000000000000000     
   7.8125000000000000E-002  0.42187500000000000        2.3540918363990531        2.3540918363990531        0.0000000000000000        1.0000000000000000     
   7.8125000000000000E-002  0.45312500000000000        2.2528599063021488        2.2528599063021488        0.0000000000000000        1.0000000000000000     
   7.8125000000000000E-002  0.48437500000000000        2.1753306858986576        2.1753306858986576        0.0000000000000000        1.0000000000000000     
   7.8125000000000000E-002  0.51562500000000000        2.1183117135564498        2.1183117135564498        0.0000000000000000        1.0000000000000000     
   7.8125000000000000E-002  0.54687500000000000        2.0778651755489972        2.0778651755489972        0.0000000000000000        1.0000000000000000     
   7.8125000000000000E-002  0.57812500000000000        2.0500846582061025        2.0500846582061025        0.0000000000000000        1.0000000000000000     
   7.8125000000000000E-002  0.60937500000000000        2.0315460171624791        2.0315460171624791        0.0000000000000000        1.0000000000000000     
   7.8125000000000000E-002  0.64062500000000000        2.0194904913528147        2.0194904913528147        0.0000000000000000        1.0000000000000000     
   7.8125000000000000E-002  0.67187500000000000        2.0118311761127052        2.0118311761127052        0.0000000000000000        1.0000000000000000     
   7.8125000000000000E-002  0.70312500000000000        2.0070661049564529        2.0070661049564529        0.0000000000000000        1.0000000000000000     
   7.8125000000000000E-002  0.73437500000000000        2.0041575205076332        2.0041575205076332        0.0000000000000000        1.0000000000000000     
   7.8125000000000000E-002  0.76562500000000000        2.0024125688357968        2.0024125688357968        0.0000000000000000        1.0000000000000000     
   7.8125000000000000E-002  0.79687500000000000        2.0013820389094876        2.0013820389094876        0.0000000000000000        1.0000000000000000     
   7.8125000000000000E-002  0.82812500000000000        2.0007819837539849        2.0007819837539849        0.0000000000000000        1.0000000000000000     
   7.8125000000000000E-002  0.85937500000000000        2.0004368217965780        2.0004368217965780        0.0000000000000000        1.0000000000000000     
   7.8125000000000000E-002  0.89062500000000000        2.0002399678677580        2.0002399678677580        0.0000000000000000        1.0000000000000000     
   7.8125000000000000E-002  0.92187500000000000        2.0001275762560335        2.0001275762560335        0.0000000000000000        1.0000000000000000     
   7.8125000000000000E-002  0.95312500000000000        2.0000614788529725        2.0000614788529725        0.0000000000000000        1.0000000000000000     
   7.8125000000000000E-002  0.98437500000000000        2.0000182104385611        2.0000182104385611        0.0000000000000000        1.0000000000000000     
   7.8125000000000000E-002   1.0156250000000000        1.9999817895614389        1.9999817895614389        0.0000000000000000        1.0000000000000000     
  0.10937500000000000       -1.5625000000000000E-002   3.0023539091003855        3.0023539091003855        1.0000000000000000        0.0000000000000000     
  0.10937500000000000        1.5625000000000000E-002   2.9976460908996145        2.9976460908996145        1.0000000000000000        0.0000000000000000     
  0.10937500000000000        4.6875000000000000E-002   2.9929609187425723        2.9929609187425723        1.0000000000000000        0.0000000000000000     
  0.10937500000000000        7.8125000000000000E-002   2.9883412830856950        2.9883412830856950        1.0000000000000000        0.0000000000000000     
  0.10937500000000000       0.10937500000000000        2.9838231184149584        2.9838231184149584        1.0000000000000000        0.0000000000000000     
  0.10937500000000000       0.14062500000000000        2.9794315977223569        2.9794315977223569        1.0000000000000000        0.0000000000000000     
  0.10937500000000000       0.17187500000000000        2.9751784632502898        2.9751784632502898        1.0000000000000000        0.0000000000000000     
  0.10937500000000000       0.20312500000000000        2.9710607772312132        2.9710607772312132        1.0000000000000000        0.0000000000000000     
  0.10937500000000000       0.23437500000000000        2.9670612339871725        2.9670612339871725        1.0000000000000000        0.0000000000000000     
  0.10937500000000000       0.26562500000000000        2.9631499999107924        2.9631499999107924        1.0000000000000000        0.0000000000000000     
  0.10937500000000000       0.29687500000000000        2.9600603016910050        2.9231353579000618       0.60000000000000031       0.39999999999999963     
  0.10937500000000000       0.32812500000000000        2.7985572132750396        2.7985572132750396        0.0000000000000000        1.0000000000000000     
  0.10937500000000000       0.35937500000000000        2.6302987405556419        2.6302987405556419        0.0000000000000000        1.0000000000000000     
  0.10937500000000000       0.39062500000000000        2.4804150118615187        2.4804150118615187        0.0000000000000000        1.0000000000000000     
  0.10937500000000000       0.42187500000000000        2.3540918363990531        2.3540918363990531        0.0000000000000000        1.0000000000000000     
  0.10937500000000000       0.45312500000000000        2.2528599063021488        2.2528599063021488        0.0000000000000000        1.0000000000000000     
  0.10937500000000000       0.48437500000000000        2.1753306858986576        2.1753306858986576        0.0000000000000000        1.0000000000000000     
  0.10937500000000000       0.51562500000000000        2.1183117135564498        2.1183117135564498        0.0000000000000000        1.0000000000000000     
  0.10937500000000000       0.54687500000000000        2.0778651755489972        2.0778651755489972        0.0000000000000000        1.0000000000000000     
  0.10937500000000000       0.57812500000000000        2.0500846582061025        2.0500846582061025        0.0000000000000000        1.0000000000000000     
  0.10937500000000000       0.60937500000000000        2.0315460171624791        2.0315460171624791        0.0000000000000000        1.0000000000000000     
  0.10937500000000000       0.64062500000000000        2.0194904913528147        2.0194904913528147        0.0000000000000000        1.0000000000000000     
  0.10937500000000000       0.67187500000000000        2.0118311761127052        2.0118311761127052        0.0000000000000000        1.0000000000000000     
  0.10937500000000000       0.70312500000000000        2.0070661049564529        2.0070661049564529        0.0000000000000000        1.0000000000000000     
  0.10937500000000000       0.73437500000000000        2.0041575205076332        2.0041575205076332        0.0000000000000000        1.0000000000000000     
  0.10937500000000000       0.76562500000000000        2.0024125688357968        2.0024125688357968        0.0000000000000000        1.0000000000000000     
  0.10937500000000000       0.79687500000000000        2.0013820389094876        2.0013820389094876        0.0000000000000000        1.0000000000000000     
  0.10937500000000000       0.82812500000000000        2.0007819837539849        2.0007819837539849        0.0000000000000000        1.0000000000000000     
  0.10937500000000000       0.85937500000000000        2.0004368217965780        2.0004368217965780        0.0000000000000000        1.0000000000000000     
  0.10937500000000000       0.89062500000000000        2.0002399678677580        2.0002399678677580        0.0000000000000000        1.0000000000000000     
  0.10937500000000000       0.92187500000000000        2.0001275762560335        2.0001275762560335        0.0000000000000000        1.0000000000000000     
  0.10937500000000000       0.95312500000000000        2.0000614788529725        2.0000614788529725        0.0000000000000000        1.0000000000000000     
  0.10937500000000000       0.98437500000000000        2.0000182104385611        2.0000182104385611        0.0000000000000000        1.0000000000000000     
  0.10937500000000000        1.0156250000000000        1.9999817895614389        1.9999817895614389        0.0000000000000000        1.0000000000000000     
  0.14062500000000000       -1.5625000000000000E-002   3.0023539091003855        3.0023539091003855        1.0000000000000000        0.0000000000000000     
  0.14062500000000000        1.5625000000000000E-002   2.9976460908996145        2.9976460908996145        1.0000000000000000        0.0000000000000000     
  0.14062500000000000        4.6875000000000000E-002   2.9929609187425723        2.9929609187425723        1.0000000000000000        0.0000000000000000     
  0.14062500000000000        7.8125000000000000E-002   2.9883412830856950        2.9883412830856950        1.0000000000000000        0.0000000000000000     
  0.14062500000000000       0.10937500000000000        2.9838231184149584        2.9838231184149584        1.0000000000000000        0.0000000000000000     
  0.14062500000000000       0.14062500000000000        2.9794315977223569        2.9794315977223569        1.0000000000000000        0.0000000000000000     
  0.14062500000000000       0.17187500000000000        2.9751784632502898        2.9751784632502898        1.0000000000000000        0.0000000000000000     
  0.14062500000000000       0.20312500000000000        2.9710607772312132        2.9710607772312132        1.0000000000000000        0.0000000000000000     
  0.14062500000000000       0.23437500000000000        2.9670612339871725        2.9670612339871725        1.0000000000000000        0.0000000000000000     
  0.14062500000000000       0.26562500000000000        2.9631499999107924        2.9631499999107924        1.0000000000000000        0.0000000000000000     
  0.14062500000000000       0.29687500000000000        2.9600603016910050        2.9231353579000618       0.60000000000000031       0.39999999999999963     
  0.14062500000000000       0.32812500000000000        2.7985572132750396        2.7985572132750396        0.0000000000000000        1.0000000000000000     
  0.14062500000000000       0.35937500000000000        2.6302987405556424        2.6302987405556424        0.0000000000000000        1.0000000000000000     
  0.14062500000000000       0.39062500000000000        2.4804150118615187        2.4804150118615187        0.0000000000000000        1.0000000000000000     
  0.14062500000000000       0.42187500000000000        2.3540918363990531        2.3540918363990531        0.0000000000000000        1.0000000000000000     
  0.14062500000000000       0.45312500000000000        2.2528599063021488        2.2528599063021488        0.0000000000000000        1.0000000000000000     
  0.14062500000000000       0.48437500000000000        2.1753306858986576        2.1753306858986576        0.0000000000000000        1.0000000000000000     
  0.14062500000000000       0.51562500000000000        2.1183117135564498        2.1183117135564498        0.0000000000000000        1.0000000000000000     
  0.14062500000000000       0.54687500000000000        2.0778651755489972        2.0778651755489972        0.0000000000000000        1.0000000000000000     
  0.14062500000000000       0.57812500000000000        2.0500846582061025        2.0500846582061025        0.0000000000000000        1.0000000000000000     