 VARIABLES="X","Y","U1","U2","F1","F2"
 zone i=          34  j=          34  f=point
 SOLUTIONTIME=  0.21250000000000002       STRANDID=          18
  -1.5625000000000000E-002  -1.5625000000000000E-002   2.0000000000000000        2.0000000000000000        1.0000000000000000        0.0000000000000000     
  -1.5625000000000000E-002   1.5625000000000000E-002   2.9978594939736718        2.9978594939736718        1.0000000000000000        0.0000000000000000     
  -1.5625000000000000E-002   4.6875000000000000E-002   2.9935784921330786        2.9935784921330786        1.0000000000000000        0.0000000000000000     
  -1.5625000000000000E-002   7.8125000000000000E-002   2.9892975207081807        2.9892975207081807        1.0000000000000000        0.0000000000000000     
  -1.5625000000000000E-002  0.10937500000000000        2.9850165931532398        2.9850165931532398        1.0000000000000000        0.0000000000000000     
  -1.5625000000000000E-002  0.14062500000000000        2.9807357205762162        2.9807357205762162        1.0000000000000000        0.0000000000000000     
  -1.5625000000000000E-002  0.17187500000000000        2.9764549106208018        2.9764549106208018        1.0000000000000000        0.0000000000000000     
  -1.5625000000000000E-002  0.20312500000000000        2.9721741620716839        2.9721741620716839        1.0000000000000000        0.0000000000000000     
  -1.5625000000000000E-002  0.23437500000000000        2.9678934650742947        2.9678934650742947        1.0000000000000000        0.0000000000000000     
  -1.5625000000000000E-002  0.26562500000000000        2.9636128066998966        2.9636128066998966        1.0000000000000000        0.0000000000000000     
  -1.5625000000000000E-002  0.29687500000000000        2.9601882989497548        2.9351067319721484       0.60000000000000031       0.39999999999999963     
  -1.5625000000000000E-002  0.32812500000000000        2.8519849796750667        2.8519849796750667        0.0000000000000000        1.0000000000000000     
  -1.5625000000000000E-002  0.35937500000000000        2.7359430448067226        2.7359430448067226        0.0000000000000000        1.0000000000000000     
  -1.5625000000000000E-002  0.39062500000000000        2.6253846910466141        2.6253846910466141        0.0000000000000000        1.0000000000000000     
  -1.5625000000000000E-002  0.42187500000000000        2.5226596464303626        2.5226596464303626        0.0000000000000000        1.0000000000000000     
  -1.5625000000000000E-002  0.45312500000000000        2.4295361552398416        2.4295361552398416        0.0000000000000000        1.0000000000000000     
  -1.5625000000000000E-002  0.48437500000000000        2.3471256843468824        2.3471256843468824        0.0000000000000000        1.0000000000000000     
  -1.5625000000000000E-002  0.51562500000000000        2.2758845420942926        2.2758845420942926        0.0000000000000000        1.0000000000000000     
  -1.5625000000000000E-002  0.54687500000000000        2.2156808262394048        2.2156808262394048        0.0000000000000000        1.0000000000000000     
  -1.5625000000000000E-002  0.57812500000000000        2.1659068020921932        2.1659068020921932        0.0000000000000000        1.0000000000000000     
  -1.5625000000000000E-002  0.60937500000000000        2.1256138704549841        2.1256138704549841        0.0000000000000000        1.0000000000000000     
  -1.5625000000000000E-002  0.64062500000000000        2.0936491008579052        2.0936491008579052        0.0000000000000000        1.0000000000000000     
  -1.5625000000000000E-002  0.67187500000000000        2.0687772804165405        2.0687772804165405        0.0000000000000000        1.0000000000000000     
  -1.5625000000000000E-002  0.70312500000000000        2.0497786989396172        2.0497786989396172        0.0000000000000000        1.0000000000000000     
  -1.5625000000000000E-002  0.73437500000000000        2.0355188840502438        2.0355188840502438        0.0000000000000000        1.0000000000000000     
  -1.5625000000000000E-002  0.76562500000000000        2.0249912136405279        2.0249912136405279        0.0000000000000000        1.0000000000000000     
  -1.5625000000000000E-002  0.79687500000000000        2.0173363643560722        2.0173363643560722        0.0000000000000000        1.0000000000000000     
  -1.5625000000000000E-002  0.82812500000000000        2.0118439715535912        2.0118439715535912        0.0000000000000000        1.0000000000000000     
  -1.5625000000000000E-002  0.85937500000000000        2.0079420232587237        2.0079420232587237        0.0000000000000000        1.0000000000000000     
  -1.5625000000000000E-002  0.89062500000000000        2.0051788286596359        2.0051788286596359        0.0000000000000000        1.0000000000000000     
  -1.5625000000000000E-002  0.92187500000000000        2.0032012997055517        2.0032012997055517        0.0000000000000000        1.0000000000000000     
  -1.5625000000000000E-002  0.95312500000000000        2.0017320787797486        2.0017320787797486        0.0000000000000000        1.0000000000000000     
  -1.5625000000000000E-002  0.98437500000000000        2.0005469457770122        2.0005469457770122        0.0000000000000000        1.0000000000000000     
  -1.5625000000000000E-002   1.0156250000000000        2.0000000000000000        2.0000000000000000        0.0000000000000000        1.0000000000000000     
   1.5625000000000000E-002  -1.5625000000000000E-002   3.0021405060263282        3.0021405060263282        1.0000000000000000        0.0000000000000000     
   1.5625000000000000E-002   1.5625000000000000E-002   2.9978594939736718        2.9978594939736718        1.0000000000000000        0.0000000000000000     
   1.5625000000000000E-002   4.6875000000000000E-002   2.9935784921330786        2.9935784921330786        1.0000000000000000        0.0000000000000000     
   1.5625000000000000E-002   7.8125000000000000E-002   2.9892975207081807        2.9892975207081807        1.0000000000000000        0.0000000000000000     
   1.5625000000000000E-002  0.10937500000000000        2.9850165931532398        2.9850165931532398        1.0000000000000000        0.0000000000000000     
   1.5625000000000000E-002  0.14062500000000000        2.9807357205762162        2.9807357205762162        1.0000000000000000        0.0000000000000000     
   1.5625000000000000E-002  0.17187500000000000        2.9764549106208018        2.9764549106208018        1.0000000000000000        0.0000000000000000     
   1.5625000000000000E-002  0.20312500000000000        2.9721741620716839        2.9721741620716839        1.0000000000000000        0.0000000000000000     
   1.5625000000000000E-002  0.23437500000000000        2.9678934650742947        2.9678934650742947        1.0000000000000000        0.0000000000000000     
   1.5625000000000000E-002  0.26562500000000000        2.9636128066998966        2.9636128066998966        1.0000000000000000        0.0000000000000000     
   1.5625000000000000E-002  0.29687500000000000        2.9601882989497548        2.9351067319721484       0.60000000000000031       0.39999999999999963     
   1.5625000000000000E-002  0.32812500000000000        2.8519849796750667        2.8519849796750667        0.0000000000000000        1.0000000000000000     
   1.5625000000000000E-002  0.35937500000000000        2.7359430448067226        2.7359430448067226        0.0000000000000000        1.0000000000000000     
   1.5625000000000000E-002  0.39062500000000000        2.6253846910466141        2.6253846910466141        0.0000000000000000        1.0000000000000000     
   1.5625000000000000E-002  0.42187500000000000        2.5226596464303626        2.5226596464303626        0.0000000000000000        1.0000000000000000     
   1.5625000000000000E-002  0.45312500000000000        2.4295361552398416        2.4295361552398416        0.0000000000000000        1.0000000000000000     
   1.5625000000000000E-002  0.48437500000000000        2.3471256843468824        2.3471256843468824        0.0000000000000000        1.0000000000000000     
   1.5625000000000000E-002  0.51562500000000000        2.2758845420942926        2.2758845420942926        0.0000000000000000        1.0000000000000000     
   1.5625000000000000E-002  0.54687500000000000        2.2156808262394048        2.2156808262394048        0.0000000000000000        1.0000000000000000     
   1.5625000000000000E-002  0.57812500000000000        2.1659068020921932        2.1659068020921932        0.0000000000000000        1.0000000000000000     
   1.5625000000000000E-002  0.60937500000000000        2.1256138704549841        2.1256138704549841        0.0000000000000000        1.0000000000000000     
   1.5625000000000000E-002  0.64062500000000000        2.0936491008579052        2.0936491008579052        0.0000000000000000        1.0000000000000000     
   1.5625000000000000E-002  0.67187500000000000        2.0687772804165405        2.0687772804165405        0.0000000000000000        1.0000000000000000     
   1.5625000000000000E-002  0.70312500000000000        2.0497786989396172        2.0497786989396172        0.0000000000000000        1.0000000000000000     
   1.5625000000000000E-002  0.73437500000000000        2.0355188840502438        2.0355188840502438        0.0000000000000000        1.0000000000000000     
   1.5625000000000000E-002  0.76562500000000000        2.0249912136405279        2.0249912136405279        0.0000000000000000        1.0000000000000000     
   1.5625000000000000E-002  0.79687500000000000        2.0173363643560722        2.0173363643560722        0.0000000000000000        1.0000000000000000     
   1.5625000000000000E-002  0.82812500000000000        2.0118439715535912        2.0118439715535912        0.0000000000000000        1.0000000000000000     
   1.5625000000000000E-002  0.85937500000000000        2.0079420232587237        2.0079420232587237        0.0000000000000000        1.0000000000000000     
   1.5625000000000000E-002  0.89062500000000000        2.0051788286596359        2.0051788286596359        0.0000000000000000        1.0000000000000000     
   1.5625000000000000E-002  0.92187500000000000        2.0032012997055517        2.0032012997055517        0.0000000000000000        1.0000000000000000     
   1.5625000000000000E-002  0.95312500000000000        2.0017320787797486        2.0017320787797486        0.0000000000000000        1.0000000000000000     
   1.5625000000000000E-002  0.98437500000000000        2.0005469457770122        2.0005469457770122        0.0000000000000000        1.0000000000000000     
   1.5625000000000000E-002   1.0156250000000000        1.9994530542229878        1.9994530542229878        0.0000000000000000        1.0000000000000000     
   4.6875000000000000E-002  -1.5625000000000000E-002   3.0021405060263282        3.0021405060263282        1.0000000000000000        0.0000000000000000     
   4.6875000000000000E-002   1.5625000000000000E-002   2.9978594939736718        2.9978594939736718        1.0000000000000000        0.0000000000000000     
   4.6875000000000000E-002   4.6875000000000000E-002   2.9935784921330786        2.9935784921330786        1.0000000000000000        0.0000000000000000     
   4.6875000000000000E-002   7.8125000000000000E-002   2.9892975207081802        2.9892975207081802        1.0000000000000000        0.0000000000000000     
   4.6875000000000000E-002  0.10937500000000000        2.9850165931532398        2.9850165931532398        1.0000000000000000        0.0000000000000000     
   4.6875000000000000E-002  0.14062500000000000        2.9807357205762162        2.9807357205762162        1.0000000000000000        0.0000000000000000     
   4.6875000000000000E-002  0.17187500000000000        2.9764549106208018        2.9764549106208018        1.0000000000000000        0.0000000000000000     
   4.6875000000000000E-002  0.20312500000000000        2.9721741620716835        2.9721741620716835        1.0000000000000000        0.0000000000000000     
   4.6875000000000000E-002  0.23437500000000000        2.9678934650742947        2.9678934650742947        1.0000000000000000        0.0000000000000000     
   4.6875000000000000E-002  0.26562500000000000        2.9636128066998966        2.9636128066998966        1.0000000000000000        0.0000000000000000     
   4.6875000000000000E-002  0.29687500000000000        2.9601882989497543        2.9351067319721489       0.60000000000000031       0.39999999999999963     
   4.6875000000000000E-002  0.32812500000000000        2.8519849796750667        2.8519849796750667        0.0000000000000000        1.0000000000000000     
   4.6875000000000000E-002  0.35937500000000000        2.7359430448067221        2.7359430448067221        0.0000000000000000        1.0000000000000000     
   4.6875000000000000E-002  0.39062500000000000        2.6253846910466141        2.6253846910466141        0.0000000000000000        1.0000000000000000     
   4.6875000000000000E-002  0.42187500000000000        2.5226596464303626        2.5226596464303626        0.0000000000000000        1.0000000000000000     
   4.6875000000000000E-002  0.45312500000000000        2.4295361552398420        2.4295361552398420        0.0000000000000000        1.0000000000000000     
   4.6875000000000000E-002  0.48437500000000000        2.3471256843468824        2.3471256843468824        0.0000000000000000        1.0000000000000000     
   4.6875000000000000E-002  0.51562500000000000        2.2758845420942926        2.2758845420942926        0.0000000000000000        1.0000000000000000     
   4.6875000000000000E-002  0.54687500000000000        2.2156808262394048        2.2156808262394048        0.0000000000000000        1.0000000000000000     
   4.6875000000000000E-002  0.57812500000000000        2.1659068020921932        2.1659068020921932        0.0000000000000000        1.0000000000000000     
   4.6875000000000000E-002  0.60937500000000000        2.1256138704549841        2.1256138704549841        0.0000000000000000        1.0000000000000000     
   4.6875000000000000E-002  0.64062500000000000        2.0936491008579052        2.0936491008579052        0.0000000000000000        1.0000000000000000     
   4.6875000000000000E-002  0.67187500000000000        2.0687772804165405        2.0687772804165405        0.0000000000000000        1.0000000000000000     
   4.6875000000000000E-002  0.70312500000000000        2.0497786989396172        2.0497786989396172        0.0000000000000000        1.0000000000000000     
   4.6875000000000000E-002  0.73437500000000000        2.0355188840502443        2.0355188840502443        0.0000000000000000        1.0000000000000000     
   4.6875000000000000E-002  0.76562500000000000        2.0249912136405279        2.0249912136405279        0.0000000000000000        1.0000000000000000     
   4.6875000000000000E-002  0.79687500000000000        2.0173363643560718        2.0173363643560718        0.0000000000000000        1.0000000000000000     
   4.6875000000000000E-002  0.82812500000000000        2.0118439715535912        2.0118439715535912        0.0000000000000000        1.0000000000000000     
   4.6875000000000000E-002  0.85937500000000000        2.0079420232587237        2.0079420232587237        0.0000000000000000        1.0000000000000000     
   4.6875000000000000E-002  0.89062500000000000        2.0051788286596359        2.0051788286596359        0.0000000000000000        1.0000000000000000     
   4.6875000000000000E-002  0.92187500000000000        2.0032012997055517        2.0032012997055517        0.0000000000000000        1.0000000000000000     
   4.6875000000000000E-002  0.95312500000000000        2.0017320787797486        2.0017320787797486        0.0000000000000000        1.0000000000000000     
   4.6875000000000000E-002  0.98437500000000000        2.0005469457770122        2.0005469457770122        0.0000000000000000        1.0000000000000000     
   4.6875000000000000E-002   1.0156250000000000        1.9994530542229878        1.9994530542229878        0.0000000000000000        1.0000000000000000     
   7.8125000000000000E-002  -1.5625000000000000E-002   3.0021405060263282        3.0021405060263282        1.0000000000000000        0.0000000000000000     
   7.8125000000000000E-002   1.5625000000000000E-002   2.9978594939736718        2.9978594939736718        1.0000000000000000        0.0000000000000000     
   7.8125000000000000E-002   4.6875000000000000E-002   2.9935784921330786        2.9935784921330786        1.0000000000000000        0.0000000000000000     
   7.8125000000000000E-002   7.8125000000000000E-002   2.9892975207081802        2.9892975207081802        1.0000000000000000        0.0000000000000000     
   7.8125000000000000E-002  0.10937500000000000        2.9850165931532398        2.9850165931532398        1.0000000000000000        0.0000000000000000     
   7.8125000000000000E-002  0.14062500000000000        2.9807357205762162        2.9807357205762162        1.0000000000000000        0.0000000000000000     
   7.8125000000000000E-002  0.17187500000000000        2.9764549106208018        2.9764549106208018        1.0000000000000000        0.0000000000000000     
   7.8125000000000000E-002  0.20312500000000000        2.9721741620716839        2.9721741620716839        1.0000000000000000        0.0000000000000000     
   7.8125000000000000E-002  0.23437500000000000        2.9678934650742947        2.9678934650742947        1.0000000000000000        0.0000000000000000     
   7.8125000000000000E-002  0.26562500000000000        2.9636128066998966        2.9636128066998966        1.0000000000000000        0.0000000000000000     
   7.8125000000000000E-002  0.29687500000000000        2.9601882989497543        2.9351067319721502       0.60000000000000031       0.39999999999999963     
   7.8125000000000000E-002  0.32812500000000000        2.8519849796750667        2.8519849796750667        0.0000000000000000        1.0000000000000000     
   7.8125000000000000E-002  0.35937500000000000        2.7359430448067226        2.7359430448067226        0.0000000000000000        1.0000000000000000     
   7.8125000000000000E-002  0.39062500000000000        2.6253846910466141        2.6253846910466141        0.0000000000000000        1.0000000000000000     
   7.8125000000000000E-002  0.42187500000000000        2.5226596464303626        2.5226596464303626        0.0000000000000000        1.0000000000000000     
   7.8125000000000000E-002  0.45312500000000000        2.4295361552398420        2.4295361552398420        0.0000000000000000        1.0000000000000000     
   7.8125000000000000E-002  0.48437500000000000        2.3471256843468824        2.3471256843468824        0.0000000000000000        1.0000000000000000     
   7.8125000000000000E-002  0.51562500000000000        2.2758845420942926        2.2758845420942926        0.0000000000000000        1.0000000000000000     
   7.8125000000000000E-002  0.54687500000000000        2.2156808262394048        2.2156808262394048        0.0000000000000000        1.0000000000000000     
   7.8125000000000000E-002  0.57812500000000000        2.1659068020921932        2.1659068020921932        0.0000000000000000        1.0000000000000000     
   7.8125000000000000E-002  0.60937500000000000        2.1256138704549841        2.1256138704549841        0.0000000000000000        1.0000000000000000     
   7.8125000000000000E-002  0.64062500000000000        2.0936491008579052        2.0936491008579052        0.0000000000000000        1.0000000000000000     
   7.8125000000000000E-002  0.67187500000000000        2.0687772804165405        2.0687772804165405        0.0000000000000000        1.0000000000000000     
   7.8125000000000000E-002  0.70312500000000000        2.0497786989396172        2.0497786989396172        0.0000000000000000        1.0000000000000000     
   7.8125000000000000E-002  0.73437500000000000        2.0355188840502438        2.0355188840502438        0.0000000000000000        1.0000000000000000     
   7.8125000000000000E-002  0.76562500000000000        2.0249912136405284        2.0249912136405284        0.0000000000000000        1.0000000000000000     
   7.8125000000000000E-002  0.79687500000000000        2.0173363643560722        2.0173363643560722        0.0000000000000000        1.0000000000000000     
   7.8125000000000000E-002  0.82812500000000000        2.0118439715535912        2.0118439715535912        0.0000000000000000        1.0000000000000000     
   7.8125000000000000E-002  0.85937500000000000        2.0079420232587237        2.0079420232587237        0.0000000000000000        1.0000000000000000     
   7.8125000000000000E-002  0.89062500000000000        2.0051788286596359        2.0051788286596359        0.0000000000000000        1.0000000000000000     
   7.8125000000000000E-002  0.92187500000000000        2.0032012997055517        2.0032012997055517        0.0000000000000000        1.0000000000000000     
   7.8125000000000000E-002  0.95312500000000000        2.0017320787797486        2.0017320787797486        0.0000000000000000        1.0000000000000000     
   7.8125000000000000E-002  0.98437500000000000        2.0005469457770122        2.0005469457770122        0.0000000000000000        1.0000000000000000     
   7.8125000000000000E-002   1.0156250000000000        1.9994530542229878        1.9994530542229878        0.0000000000000000        1.0000000000000000     
  0.10937500000000000       -1.5625000000000000E-002   3.0021405060263282        3.0021405060263282        1.0000000000000000        0.0000000000000000     
  0.10937500000000000        1.5625000000000000E-002   2.9978594939736718        2.9978594939736718        1.0000000000000000        0.0000000000000000     
  0.10937500000000000        4.6875000000000000E-002   2.9935784921330786        2.9935784921330786        1.0000000000000000        0.0000000000000000     
  0.10937500000000000        7.8125000000000000E-002   2.9892975207081802        2.9892975207081802        1.0000000000000000        0.0000000000000000     
  0.10937500000000000       0.10937500000000000        2.9850165931532398        2.9850165931532398        1.0000000000000000        0.0000000000000000     
  0.10937500000000000       0.14062500000000000        2.9807357205762162        2.9807357205762162        1.0000000000000000        0.0000000000000000     
  0.10937500000000000       0.17187500000000000        2.9764549106208018        2.9764549106208018        1.0000000000000000        0.0000000000000000     
  0.10937500000000000       0.20312500000000000        2.9721741620716835        2.9721741620716835        1.0000000000000000        0.0000000000000000     
  0.10937500000000000       0.23437500000000000        2.9678934650742947        2.9678934650742947        1.0000000000000000        0.0000000000000000     
  0.10937500000000000       0.26562500000000000        2.9636128066998966        2.9636128066998966        1.0000000000000000        0.0000000000000000     
  0.10937500000000000       0.29687500000000000        2.9601882989497543        2.9351067319721471       0.60000000000000031       0.39999999999999963     
  0.10937500000000000       0.32812500000000000        2.8519849796750667        2.8519849796750667        0.0000000000000000        1.0000000000000000     
  0.10937500000000000       0.35937500000000000        2.7359430448067226        2.7359430448067226        0.0000000000000000        1.0000000000000000     
  0.10937500000000000       0.39062500000000000        2.6253846910466141        2.6253846910466141        0.0000000000000000        1.0000000000000000     
  0.10937500000000000       0.42187500000000000        2.5226596464303626        2.5226596464303626        0.0000000000000000        1.0000000000000000     
  0.10937500000000000       0.45312500000000000        2.4295361552398420        2.4295361552398420        0.0000000000000000        1.0000000000000000     
  0.10937500000000000       0.48437500000000000        2.3471256843468824        2.3471256843468824        0.0000000000000000        1.0000000000000000     
  0.10937500000000000       0.51562500000000000        2.2758845420942926        2.2758845420942926        0.0000000000000000        1.0000000000000000     
  0.10937500000000000       0.54687500000000000        2.2156808262394048        2.2156808262394048        0.0000000000000000        1.0000000000000000     
  0.10937500000000000       0.57812500000000000        2.1659068020921932        2.1659068020921932        0.0000000000000000        1.0000000000000000     
  0.10937500000000000       0.60937500000000000        2.1256138704549841        2.1256138704549841        0.0000000000000000        1.0000000000000000     
  0.10937500000000000       0.64062500000000000        2.0936491008579052        2.0936491008579052        0.0000000000000000        1.0000000000000000     
  0.10937500000000000       0.67187500000000000        2.0687772804165405        2.0687772804165405        0.0000000000000000        1.0000000000000000     
  0.10937500000000000       0.70312500000000000        2.0497786989396172        2.0497786989396172        0.0000000000000000        1.0000000000000000     
  0.10937500000000000       0.73437500000000000        2.0355188840502443        2.0355188840502443        0.0000000000000000        1.0000000000000000     
  0.10937500000000000       0.76562500000000000        2.0249912136405284        2.0249912136405284        0.0000000000000000        1.0000000000000000     
  0.10937500000000000       0.79687500000000000        2.0173363643560722        2.0173363643560722        0.0000000000000000        1.0000000000000000     
  0.10937500000000000       0.82812500000000000        2.0118439715535912        2.0118439715535912        0.0000000000000000        1.0000000000000000     
  0.10937500000000000       0.85937500000000000        2.0079420232587237        2.0079420232587237        0.0000000000000000        1.0000000000000000     
  0.10937500000000000       0.89062500000000000        2.0051788286596359        2.0051788286596359        0.0000000000000000        1.0000000000000000     
  0.10937500000000000       0.92187500000000000        2.0032012997055517        2.0032012997055517        0.0000000000000000        1.0000000000000000     
  0.10937500000000000       0.95312500000000000        2.0017320787797486        2.0017320787797486        0.0000000000000000        1.0000000000000000     
  0.10937500000000000       0.98437500000000000        2.0005469457770122        2.0005469457770122        0.0000000000000000        1.0000000000000000     
  0.10937500000000000        1.0156250000000000        1.9994530542229878        1.9994530542229878        0.0000000000000000        1.0000000000000000     
  0.14062500000000000       -1.5625000000000000E-002   3.0021405060263286        3.0021405060263286        1.0000000000000000        0.0000000000000000     
  0.14062500000000000        1.5625000000000000E-002   2.9978594939736714        2.9978594939736714        1.0000000000000000        0.0000000000000000     
  0.14062500000000000        4.6875000000000000E-002   2.9935784921330786        2.9935784921330786        1.0000000000000000        0.0000000000000000     
  0.14062500000000000        7.8125000000000000E-002   2.9892975207081802        2.9892975207081802        1.0000000000000000        0.0000000000000000     
  0.14062500000000000       0.10937500000000000        2.9850165931532398        2.9850165931532398        1.0000000000000000        0.0000000000000000     
  0.14062500000000000       0.14062500000000000        2.9807357205762162        2.9807357205762162        1.0000000000000000        0.0000000000000000     
  0.14062500000000000       0.17187500000000000        2.9764549106208018        2.9764549106208018        1.0000000000000000        0.0000000000000000     
  0.14062500000000000       0.20312500000000000        2.9721741620716839        2.9721741620716839        1.0000000000000000        0.0000000000000000     
  0.14062500000000000       0.23437500000000000        2.9678934650742947        2.9678934650742947        1.0000000000000000        0.0000000000000000     
  0.14062500000000000       0.26562500000000000        2.9636128066998961        2.9636128066998961        1.0000000000000000        0.0000000000000000     
  0.14062500000000000       0.29687500000000000        2.9601882989497534        2.9351067319721471       0.60000000000000031       0.39999999999999963     
  0.14062500000000000       0.32812500000000000        2.8519849796750671        2.8519849796750671        0.0000000000000000        1.0000000000000000     
  0.14062500000000000       0.35937500000000000        2.7359430448067226        2.7359430448067226        0.0000000000000000        1.0000000000000000     
  0.14062500000000000       0.39062500000000000        2.6253846910466141        2.6253846910466141        0.0000000000000000        1.0000000000000000     
  0.14062500000000000       0.42187500000000000        2.5226596464303630        2.5226596464303630        0.0000000000000000        1.0000000000000000     
  0.14062500000000000       0.45312500000000000        2.4295361552398420        2.4295361552398420        0.0000000000000000        1.0000000000000000     
  0.14062500000000000       0.48437500000000000        2.3471256843468824        2.3471256843468824        0.0000000000000000        1.0000000000000000     
  0.14062500000000000       0.51562500000000000        2.2758845420942926        2.2758845420942926        0.0000000000000000        1.0000000000000000     
  0.14062500000000000       0.54687500000000000        2.2156808262394048        2.2156808262394048        0.0000000000000000        1.0000000000000000     
  0.14062500000000000       0.57812500000000000        2.1659068020921932        2.1659068020921932        0.0000000000000000        1.0000000000000000     