 VARIABLES="X","Y","U1","U2","F1","F2"
 zone i=          34  j=          34  f=point
 SOLUTIONTIME=  0.25000000000000000       STRANDID=          21
  -1.5625000000000000E-002  -1.5625000000000000E-002   2.0000000000000000        2.0000000000000000        1.0000000000000000        0.0000000000000000     
  -1.5625000000000000E-002   1.5625000000000000E-002   2.9978595815944176        2.9978595815944176        1.0000000000000000        0.0000000000000000     
  -1.5625000000000000E-002   4.6875000000000000E-002   2.9935787457014005        2.9935787457014005        1.0000000000000000        0.0000000000000000     
  -1.5625000000000000E-002   7.8125000000000000E-002   2.9892979133244317        2.9892979133244317        1.0000000000000000        0.0000000000000000     
  -1.5625000000000000E-002  0.10937500000000000        2.9850170831743998        2.9850170831743998        1.0000000000000000        0.0000000000000000     
  -1.5625000000000000E-002  0.14062500000000000        2.9807362560279547        2.9807362560279547        1.0000000000000000        0.0000000000000000     
  -1.5625000000000000E-002  0.17187500000000000        2.9764554347060073        2.9764554347060073        1.0000000000000000        0.0000000000000000     
  -1.5625000000000000E-002  0.20312500000000000        2.9721746192012599        2.9721746192012599        1.0000000000000000        0.0000000000000000     
  -1.5625000000000000E-002  0.23437500000000000        2.9678938067675911        2.9678938067675911        1.0000000000000000        0.0000000000000000     
  -1.5625000000000000E-002  0.26562500000000000        2.9636129967187381        2.9636129967187381        1.0000000000000000        0.0000000000000000     
  -1.5625000000000000E-002  0.29687500000000000        2.9601883515024854        2.9370501641469420       0.60000000000000031       0.39999999999999963     
  -1.5625000000000000E-002  0.32812500000000000        2.8606912869288514        2.8606912869288514        0.0000000000000000        1.0000000000000000     
  -1.5625000000000000E-002  0.35937500000000000        2.7536866197733141        2.7536866197733141        0.0000000000000000        1.0000000000000000     
  -1.5625000000000000E-002  0.39062500000000000        2.6509294373829886        2.6509294373829886        0.0000000000000000        1.0000000000000000     
  -1.5625000000000000E-002  0.42187500000000000        2.5543098464536067        2.5543098464536067        0.0000000000000000        1.0000000000000000     
  -1.5625000000000000E-002  0.45312500000000000        2.4653337672244304        2.4653337672244304        0.0000000000000000        1.0000000000000000     
  -1.5625000000000000E-002  0.48437500000000000        2.3850586551523043        2.3850586551523043        0.0000000000000000        1.0000000000000000     
  -1.5625000000000000E-002  0.51562500000000000        2.3140744335475607        2.3140744335475607        0.0000000000000000        1.0000000000000000     
  -1.5625000000000000E-002  0.54687500000000000        2.2525263390224053        2.2525263390224053        0.0000000000000000        1.0000000000000000     
  -1.5625000000000000E-002  0.57812500000000000        2.2001712561962132        2.2001712561962132        0.0000000000000000        1.0000000000000000     
  -1.5625000000000000E-002  0.60937500000000000        2.1564561394787556        2.1564561394787556        0.0000000000000000        1.0000000000000000     
  -1.5625000000000000E-002  0.64062500000000000        2.1206064302275949        2.1206064302275949        0.0000000000000000        1.0000000000000000     
  -1.5625000000000000E-002  0.67187500000000000        2.0917136168595589        2.0917136168595589        0.0000000000000000        1.0000000000000000     
  -1.5625000000000000E-002  0.70312500000000000        2.0688135973388282        2.0688135973388282        0.0000000000000000        1.0000000000000000     
  -1.5625000000000000E-002  0.73437500000000000        2.0509505566946391        2.0509505566946391        0.0000000000000000        1.0000000000000000     
  -1.5625000000000000E-002  0.76562500000000000        2.0372240328476217        2.0372240328476217        0.0000000000000000        1.0000000000000000     
  -1.5625000000000000E-002  0.79687500000000000        2.0268192750630227        2.0268192750630227        0.0000000000000000        1.0000000000000000     
  -1.5625000000000000E-002  0.82812500000000000        2.0190226880499016        2.0190226880499016        0.0000000000000000        1.0000000000000000     
  -1.5625000000000000E-002  0.85937500000000000        2.0132250817994781        2.0132250817994781        0.0000000000000000        1.0000000000000000     
  -1.5625000000000000E-002  0.89062500000000000        2.0089157237586166        2.0089157237586166        0.0000000000000000        1.0000000000000000     
  -1.5625000000000000E-002  0.92187500000000000        2.0056699912895475        2.0056699912895475        0.0000000000000000        1.0000000000000000     
  -1.5625000000000000E-002  0.95312500000000000        2.0031329393418691        2.0031329393418691        0.0000000000000000        1.0000000000000000     
  -1.5625000000000000E-002  0.98437500000000000        2.0010005045722963        2.0010005045722963        0.0000000000000000        1.0000000000000000     
  -1.5625000000000000E-002   1.0156250000000000        2.0000000000000000        2.0000000000000000        0.0000000000000000        1.0000000000000000     
   1.5625000000000000E-002  -1.5625000000000000E-002   3.0021404184055824        3.0021404184055824        1.0000000000000000        0.0000000000000000     
   1.5625000000000000E-002   1.5625000000000000E-002   2.9978595815944176        2.9978595815944176        1.0000000000000000        0.0000000000000000     
   1.5625000000000000E-002   4.6875000000000000E-002   2.9935787457014005        2.9935787457014005        1.0000000000000000        0.0000000000000000     
   1.5625000000000000E-002   7.8125000000000000E-002   2.9892979133244317        2.9892979133244317        1.0000000000000000        0.0000000000000000     
   1.5625000000000000E-002  0.10937500000000000        2.9850170831743998        2.9850170831743998        1.0000000000000000        0.0000000000000000     
   1.5625000000000000E-002  0.14062500000000000        2.9807362560279547        2.9807362560279547        1.0000000000000000        0.0000000000000000     
   1.5625000000000000E-002  0.17187500000000000        2.9764554347060073        2.9764554347060073        1.0000000000000000        0.0000000000000000     
   1.5625000000000000E-002  0.20312500000000000        2.9721746192012599        2.9721746192012599        1.0000000000000000        0.0000000000000000     
   1.5625000000000000E-002  0.23437500000000000        2.9678938067675911        2.9678938067675911        1.0000000000000000        0.0000000000000000     
   1.5625000000000000E-002  0.26562500000000000        2.9636129967187381        2.9636129967187381        1.0000000000000000        0.0000000000000000     
   1.5625000000000000E-002  0.29687500000000000        2.9601883515024854        2.9370501641469420       0.60000000000000031       0.39999999999999963     
   1.5625000000000000E-002  0.32812500000000000        2.8606912869288514        2.8606912869288514        0.0000000000000000        1.0000000000000000     
   1.5625000000000000E-002  0.35937500000000000        2.7536866197733141        2.7536866197733141        0.0000000000000000        1.0000000000000000     
   1.5625000000000000E-002  0.39062500000000000        2.6509294373829886        2.6509294373829886        0.0000000000000000        1.0000000000000000     
   1.5625000000000000E-002  0.42187500000000000        2.5543098464536067        2.5543098464536067        0.0000000000000000        1.0000000000000000     
   1.5625000000000000E-002  0.45312500000000000        2.4653337672244304        2.4653337672244304        0.0000000000000000        1.0000000000000000     
   1.5625000000000000E-002  0.48437500000000000        2.3850586551523043        2.3850586551523043        0.0000000000000000        1.0000000000000000     
   1.5625000000000000E-002  0.51562500000000000        2.3140744335475607        2.3140744335475607        0.0000000000000000        1.0000000000000000     
   1.5625000000000000E-002  0.54687500000000000        2.2525263390224053        2.2525263390224053        0.0000000000000000        1.0000000000000000     
   1.5625000000000000E-002  0.57812500000000000        2.2001712561962132        2.2001712561962132        0.0000000000000000        1.0000000000000000     
   1.5625000000000000E-002  0.60937500000000000        2.1564561394787556        2.1564561394787556        0.0000000000000000        1.0000000000000000     
   1.5625000000000000E-002  0.64062500000000000        2.1206064302275949        2.1206064302275949        0.0000000000000000        1.0000000000000000     
   1.5625000000000000E-002  0.67187500000000000        2.0917136168595589        2.0917136168595589        0.0000000000000000        1.0000000000000000     
   1.5625000000000000E-002  0.70312500000000000        2.0688135973388282        2.0688135973388282        0.0000000000000000        1.0000000000000000     
   1.5625000000000000E-002  0.73437500000000000        2.0509505566946391        2.0509505566946391        0.0000000000000000        1.0000000000000000     
   1.5625000000000000E-002  0.76562500000000000        2.0372240328476217        2.0372240328476217        0.0000000000000000        1.0000000000000000     
   1.5625000000000000E-002  0.79687500000000000        2.0268192750630227        2.0268192750630227        0.0000000000000000        1.0000000000000000     
   1.5625000000000000E-002  0.82812500000000000        2.0190226880499016        2.0190226880499016        0.0000000000000000        1.0000000000000000     
   1.5625000000000000E-002  0.85937500000000000        2.0132250817994781        2.0132250817994781        0.0000000000000000        1.0000000000000000     
   1.5625000000000000E-002  0.89062500000000000        2.0089157237586166        2.0089157237586166        0.0000000000000000        1.0000000000000000     
   1.5625000000000000E-002  0.92187500000000000        2.0056699912895475        2.0056699912895475        0.0000000000000000        1.0000000000000000     
   1.5625000000000000E-002  0.95312500000000000        2.0031329393418691        2.0031329393418691        0.0000000000000000        1.0000000000000000     
   1.5625000000000000E-002  0.98437500000000000        2.0010005045722963        2.0010005045722963        0.0000000000000000        1.0000000000000000     
   1.5625000000000000E-002   1.0156250000000000        1.9989994954277037        1.9989994954277037        0.0000000000000000        1.0000000000000000     
   4.6875000000000000E-002  -1.5625000000000000E-002   3.0021404184055824        3.0021404184055824        1.0000000000000000        0.0000000000000000     
   4.6875000000000000E-002   1.5625000000000000E-002   2.9978595815944176        2.9978595815944176        1.0000000000000000        0.0000000000000000     
   4.6875000000000000E-002   4.6875000000000000E-002   2.9935787457014005        2.9935787457014005        1.0000000000000000        0.0000000000000000     
   4.6875000000000000E-002   7.8125000000000000E-002   2.9892979133244317        2.9892979133244317        1.0000000000000000        0.0000000000000000     
   4.6875000000000000E-002  0.10937500000000000        2.9850170831743998        2.9850170831743998        1.0000000000000000        0.0000000000000000     
   4.6875000000000000E-002  0.14062500000000000        2.9807362560279547        2.9807362560279547        1.0000000000000000        0.0000000000000000     
   4.6875000000000000E-002  0.17187500000000000        2.9764554347060073        2.9764554347060073        1.0000000000000000        0.0000000000000000     
   4.6875000000000000E-002  0.20312500000000000        2.9721746192012599        2.9721746192012599        1.0000000000000000        0.0000000000000000     
   4.6875000000000000E-002  0.23437500000000000        2.9678938067675911        2.9678938067675911        1.0000000000000000        0.0000000000000000     
   4.6875000000000000E-002  0.26562500000000000        2.9636129967187381        2.9636129967187381        1.0000000000000000        0.0000000000000000     
   4.6875000000000000E-002  0.29687500000000000        2.9601883515024854        2.9370501641469424       0.60000000000000031       0.39999999999999963     
   4.6875000000000000E-002  0.32812500000000000        2.8606912869288514        2.8606912869288514        0.0000000000000000        1.0000000000000000     
   4.6875000000000000E-002  0.35937500000000000        2.7536866197733141        2.7536866197733141        0.0000000000000000        1.0000000000000000     
   4.6875000000000000E-002  0.39062500000000000        2.6509294373829886        2.6509294373829886        0.0000000000000000        1.0000000000000000     
   4.6875000000000000E-002  0.42187500000000000        2.5543098464536063        2.5543098464536063        0.0000000000000000        1.0000000000000000     
   4.6875000000000000E-002  0.45312500000000000        2.4653337672244304        2.4653337672244304        0.0000000000000000        1.0000000000000000     
   4.6875000000000000E-002  0.48437500000000000        2.3850586551523043        2.3850586551523043        0.0000000000000000        1.0000000000000000     
   4.6875000000000000E-002  0.51562500000000000        2.3140744335475607        2.3140744335475607        0.0000000000000000        1.0000000000000000     
   4.6875000000000000E-002  0.54687500000000000        2.2525263390224053        2.2525263390224053        0.0000000000000000        1.0000000000000000     
   4.6875000000000000E-002  0.57812500000000000        2.2001712561962132        2.2001712561962132        0.0000000000000000        1.0000000000000000     
   4.6875000000000000E-002  0.60937500000000000        2.1564561394787556        2.1564561394787556        0.0000000000000000        1.0000000000000000     
   4.6875000000000000E-002  0.64062500000000000        2.1206064302275949        2.1206064302275949        0.0000000000000000        1.0000000000000000     
   4.6875000000000000E-002  0.67187500000000000        2.0917136168595589        2.0917136168595589        0.0000000000000000        1.0000000000000000     
   4.6875000000000000E-002  0.70312500000000000        2.0688135973388282        2.0688135973388282        0.0000000000000000        1.0000000000000000     
   4.6875000000000000E-002  0.73437500000000000        2.0509505566946391        2.0509505566946391        0.0000000000000000        1.0000000000000000     
   4.6875000000000000E-002  0.76562500000000000        2.0372240328476217        2.0372240328476217        0.0000000000000000        1.0000000000000000     
   4.6875000000000000E-002  0.79687500000000000        2.0268192750630227        2.0268192750630227        0.0000000000000000        1.0000000000000000     
   4.6875000000000000E-002  0.82812500000000000        2.0190226880499016        2.0190226880499016        0.0000000000000000        1.0000000000000000     
   4.6875000000000000E-002  0.85937500000000000        2.0132250817994781        2.0132250817994781        0.0000000000000000        1.0000000000000000     
   4.6875000000000000E-002  0.89062500000000000        2.0089157237586166        2.0089157237586166        0.0000000000000000        1.0000000000000000     
   4.6875000000000000E-002  0.92187500000000000        2.0056699912895475        2.0056699912895475        0.0000000000000000        1.0000000000000000     
   4.6875000000000000E-002  0.95312500000000000        2.0031329393418691        2.0031329393418691        0.0000000000000000        1.0000000000000000     
   4.6875000000000000E-002  0.98437500000000000        2.0010005045722963        2.0010005045722963        0.0000000000000000        1.0000000000000000     
   4.6875000000000000E-002   1.0156250000000000        1.9989994954277037        1.9989994954277037        0.0000000000000000        1.0000000000000000     
   7.8125000000000000E-002  -1.5625000000000000E-002   3.0021404184055824        3.0021404184055824        1.0000000000000000        0.0000000000000000     
   7.8125000000000000E-002   1.5625000000000000E-002   2.9978595815944176        2.9978595815944176        1.0000000000000000        0.0000000000000000     
   7.8125000000000000E-002   4.6875000000000000E-002   2.9935787457014005        2.9935787457014005        1.0000000000000000        0.0000000000000000     
   7.8125000000000000E-002   7.8125000000000000E-002   2.9892979133244317        2.9892979133244317        1.0000000000000000        0.0000000000000000     
   7.8125000000000000E-002  0.10937500000000000        2.9850170831743998        2.9850170831743998        1.0000000000000000        0.0000000000000000     
   7.8125000000000000E-002  0.14062500000000000        2.9807362560279547        2.9807362560279547        1.0000000000000000        0.0000000000000000     
   7.8125000000000000E-002  0.17187500000000000        2.9764554347060073        2.9764554347060073        1.0000000000000000        0.0000000000000000     
   7.8125000000000000E-002  0.20312500000000000        2.9721746192012599        2.9721746192012599        1.0000000000000000        0.0000000000000000     
   7.8125000000000000E-002  0.23437500000000000        2.9678938067675911        2.9678938067675911        1.0000000000000000        0.0000000000000000     
   7.8125000000000000E-002  0.26562500000000000        2.9636129967187381        2.9636129967187381        1.0000000000000000        0.0000000000000000     
   7.8125000000000000E-002  0.29687500000000000        2.9601883515024854        2.9370501641469433       0.60000000000000031       0.39999999999999963     
   7.8125000000000000E-002  0.32812500000000000        2.8606912869288514        2.8606912869288514        0.0000000000000000        1.0000000000000000     
   7.8125000000000000E-002  0.35937500000000000        2.7536866197733141        2.7536866197733141        0.0000000000000000        1.0000000000000000     
   7.8125000000000000E-002  0.39062500000000000        2.6509294373829890        2.6509294373829890        0.0000000000000000        1.0000000000000000     
   7.8125000000000000E-002  0.42187500000000000        2.5543098464536067        2.5543098464536067        0.0000000000000000        1.0000000000000000     
   7.8125000000000000E-002  0.45312500000000000        2.4653337672244304        2.4653337672244304        0.0000000000000000        1.0000000000000000     
   7.8125000000000000E-002  0.48437500000000000        2.3850586551523043        2.3850586551523043        0.0000000000000000        1.0000000000000000     
   7.8125000000000000E-002  0.51562500000000000        2.3140744335475607        2.3140744335475607        0.0000000000000000        1.0000000000000000     
   7.8125000000000000E-002  0.54687500000000000        2.2525263390224053        2.2525263390224053        0.0000000000000000        1.0000000000000000     
   7.8125000000000000E-002  0.57812500000000000        2.2001712561962132        2.2001712561962132        0.0000000000000000        1.0000000000000000     
   7.8125000000000000E-002  0.60937500000000000        2.1564561394787556        2.1564561394787556        0.0000000000000000        1.0000000000000000     
   7.8125000000000000E-002  0.64062500000000000        2.1206064302275949        2.1206064302275949        0.0000000000000000        1.0000000000000000     
   7.8125000000000000E-002  0.67187500000000000        2.0917136168595589        2.0917136168595589        0.0000000000000000        1.0000000000000000     
   7.8125000000000000E-002  0.70312500000000000        2.0688135973388282        2.0688135973388282        0.0000000000000000        1.0000000000000000     
   7.8125000000000000E-002  0.73437500000000000        2.0509505566946391        2.0509505566946391        0.0000000000000000        1.0000000000000000     
   7.8125000000000000E-002  0.76562500000000000        2.0372240328476217        2.0372240328476217        0.0000000000000000        1.0000000000000000     
   7.8125000000000000E-002  0.79687500000000000        2.0268192750630227        2.0268192750630227        0.0000000000000000        1.0000000000000000     
   7.8125000000000000E-002  0.82812500000000000        2.0190226880499016        2.0190226880499016        0.0000000000000000        1.0000000000000000     
   7.8125000000000000E-002  0.85937500000000000        2.0132250817994781        2.0132250817994781        0.0000000000000000        1.0000000000000000     
   7.8125000000000000E-002  0.89062500000000000        2.0089157237586166        2.0089157237586166        0.0000000000000000        1.0000000000000000     
   7.8125000000000000E-002  0.92187500000000000        2.0056699912895475        2.0056699912895475        0.0000000000000000        1.0000000000000000     
   7.8125000000000000E-002  0.95312500000000000        2.0031329393418691        2.0031329393418691        0.0000000000000000        1.0000000000000000     
   7.8125000000000000E-002  0.98437500000000000        2.0010005045722963        2.0010005045722963        0.0000000000000000        1.0000000000000000     
   7.8125000000000000E-002   1.0156250000000000        1.9989994954277037        1.9989994954277037        0.0000000000000000        1.0000000000000000     
  0.10937500000000000       -1.5625000000000000E-002   3.0021404184055824        3.0021404184055824        1.0000000000000000        0.0000000000000000     
  0.10937500000000000        1.5625000000000000E-002   2.9978595815944176        2.9978595815944176        1.0000000000000000        0.0000000000000000     
  0.10937500000000000        4.6875000000000000E-002   2.9935787457014000        2.9935787457014000        1.0000000000000000        0.0000000000000000     
  0.10937500000000000        7.8125000000000000E-002   2.9892979133244317        2.9892979133244317        1.0000000000000000        0.0000000000000000     
  0.10937500000000000       0.10937500000000000        2.9850170831743998        2.9850170831743998        1.0000000000000000        0.0000000000000000     
  0.10937500000000000       0.14062500000000000        2.9807362560279547        2.9807362560279547        1.0000000000000000        0.0000000000000000     
  0.10937500000000000       0.17187500000000000        2.9764554347060073        2.9764554347060073        1.0000000000000000        0.0000000000000000     
  0.10937500000000000       0.20312500000000000        2.9721746192012599        2.9721746192012599        1.0000000000000000        0.0000000000000000     
  0.10937500000000000       0.23437500000000000        2.9678938067675911        2.9678938067675911        1.0000000000000000        0.0000000000000000     
  0.10937500000000000       0.26562500000000000        2.9636129967187381        2.9636129967187381        1.0000000000000000        0.0000000000000000     
  0.10937500000000000       0.29687500000000000        2.9601883515024854        2.9370501641469402       0.60000000000000031       0.39999999999999963     
  0.10937500000000000       0.32812500000000000        2.8606912869288519        2.8606912869288519        0.0000000000000000        1.0000000000000000     
  0.10937500000000000       0.35937500000000000        2.7536866197733141        2.7536866197733141        0.0000000000000000        1.0000000000000000     
  0.10937500000000000       0.39062500000000000        2.6509294373829890        2.6509294373829890        0.0000000000000000        1.0000000000000000     
  0.10937500000000000       0.42187500000000000        2.5543098464536067        2.5543098464536067        0.0000000000000000        1.0000000000000000     
  0.10937500000000000       0.45312500000000000        2.4653337672244309        2.4653337672244309        0.0000000000000000        1.0000000000000000     
  0.10937500000000000       0.48437500000000000        2.3850586551523048        2.3850586551523048        0.0000000000000000        1.0000000000000000     
  0.10937500000000000       0.51562500000000000        2.3140744335475607        2.3140744335475607        0.0000000000000000        1.0000000000000000     
  0.10937500000000000       0.54687500000000000        2.2525263390224053        2.2525263390224053        0.0000000000000000        1.0000000000000000     
  0.10937500000000000       0.57812500000000000        2.2001712561962137        2.2001712561962137        0.0000000000000000        1.0000000000000000     
  0.10937500000000000       0.60937500000000000        2.1564561394787556        2.1564561394787556        0.0000000000000000        1.0000000000000000     
  0.10937500000000000       0.64062500000000000        2.1206064302275949        2.1206064302275949        0.0000000000000000        1.0000000000000000     
  0.10937500000000000       0.67187500000000000        2.0917136168595589        2.0917136168595589        0.0000000000000000        1.0000000000000000     
  0.10937500000000000       0.70312500000000000        2.0688135973388282        2.0688135973388282        0.0000000000000000        1.0000000000000000     
  0.10937500000000000       0.73437500000000000        2.0509505566946391        2.0509505566946391        0.0000000000000000        1.0000000000000000     
  0.10937500000000000       0.76562500000000000        2.0372240328476217        2.0372240328476217        0.0000000000000000        1.0000000000000000     
  0.10937500000000000       0.79687500000000000        2.0268192750630227        2.0268192750630227        0.0000000000000000        1.0000000000000000     
  0.10937500000000000       0.82812500000000000        2.0190226880499016        2.0190226880499016        0.0000000000000000        1.0000000000000000     
  0.10937500000000000       0.85937500000000000        2.0132250817994781        2.0132250817994781        0.0000000000000000        1.0000000000000000     
  0.10937500000000000       0.89062500000000000        2.0089157237586166        2.0089157237586166        0.0000000000000000        1.0000000000000000     
  0.10937500000000000       0.92187500000000000        2.0056699912895475        2.0056699912895475        0.0000000000000000        1.0000000000000000     
  0.10937500000000000       0.95312500000000000        2.0031329393418691        2.0031329393418691        0.0000000000000000        1.0000000000000000     
  0.10937500000000000       0.98437500000000000        2.0010005045722963        2.0010005045722963        0.0000000000000000        1.0000000000000000     
  0.10937500000000000        1.0156250000000000        1.9989994954277037        1.9989994954277037        0.0000000000000000        1.0000000000000000     
  0.14062500000000000       -1.5625000000000000E-002   3.0021404184055824        3.0021404184055824        1.0000000000000000        0.0000000000000000     
  0.14062500000000000        1.5625000000000000E-002   2.9978595815944176        2.9978595815944176        1.0000000000000000        0.0000000000000000     
  0.14062500000000000        4.6875000000000000E-002   2.9935787457014005        2.9935787457014005        1.0000000000000000        0.0000000000000000     
  0.14062500000000000        7.8125000000000000E-002   2.9892979133244317        2.9892979133244317        1.0000000000000000        0.0000000000000000     
  0.14062500000000000       0.10937500000000000        2.9850170831743998        2.9850170831743998        1.0000000000000000        0.0000000000000000     
  0.14062500000000000       0.14062500000000000        2.9807362560279547        2.9807362560279547        1.0000000000000000        0.0000000000000000     
  0.14062500000000000       0.17187500000000000        2.9764554347060073        2.9764554347060073        1.0000000000000000        0.0000000000000000     
  0.14062500000000000       0.20312500000000000        2.9721746192012599        2.9721746192012599        1.0000000000000000        0.0000000000000000     
  0.14062500000000000       0.23437500000000000        2.9678938067675911        2.9678938067675911        1.0000000000000000        0.0000000000000000     
  0.14062500000000000       0.26562500000000000        2.9636129967187381        2.9636129967187381        1.0000000000000000        0.0000000000000000     
  0.14062500000000000       0.29687500000000000        2.9601883515024858        2.9370501641469402       0.60000000000000031       0.39999999999999963     
  0.14062500000000000       0.32812500000000000        2.8606912869288519        2.8606912869288519        0.0000000000000000        1.0000000000000000     
  0.14062500000000000       0.35937500000000000        2.7536866197733141        2.7536866197733141        0.0000000000000000        1.0000000000000000     
  0.14062500000000000       0.39062500000000000        2.6509294373829890        2.6509294373829890        0.0000000000000000        1.0000000000000000     
  0.14062500000000000       0.42187500000000000        2.5543098464536067        2.5543098464536067        0.0000000000000000        1.0000000000000000     
  0.14062500000000000       0.45312500000000000        2.4653337672244309        2.4653337672244309        0.0000000000000000        1.0000000000000000     
  0.14062500000000000       0.48437500000000000        2.3850586551523048        2.3850586551523048        0.0000000000000000        1.0000000000000000     
  0.14062500000000000       0.51562500000000000        2.3140744335475607        2.3140744335475607        0.0000000000000000        1.0000000000000000     
  0.14062500000000000       0.54687500000000000        2.2525263390224057        2.2525263390224057        0.0000000000000000        1.0000000000000000     
  0.14062500000000000       0.57812500000000000        2.2001712561962137        2.2001712561962137        0.0000000000000000        1.0000000000000000     