 VARIABLES="X","Y","U1","U2","F1","F2"
 zone i=          34  j=          34  f=point
 SOLUTIONTIME=  0.17500000000000002       STRANDID=          15
  -1.5625000000000000E-002  -1.5625000000000000E-002   2.0000000000000000        2.0000000000000000        1.0000000000000000        0.0000000000000000     
  -1.5625000000000000E-002   1.5625000000000000E-002   2.9978583457157044        2.9978583457157044        1.0000000000000000        0.0000000000000000     
  -1.5625000000000000E-002   4.6875000000000000E-002   2.9935751691513874        2.9935751691513874        1.0000000000000000        0.0000000000000000     
  -1.5625000000000000E-002   7.8125000000000000E-002   2.9892923754647875        2.9892923754647875        1.0000000000000000        0.0000000000000000     
  -1.5625000000000000E-002  0.10937500000000000        2.9850101713868229        2.9850101713868229        1.0000000000000000        0.0000000000000000     
  -1.5625000000000000E-002  0.14062500000000000        2.9807287034216605        2.9807287034216605        1.0000000000000000        0.0000000000000000     
  -1.5625000000000000E-002  0.17187500000000000        2.9764480423670627        2.9764480423670627        1.0000000000000000        0.0000000000000000     
  -1.5625000000000000E-002  0.20312500000000000        2.9721681712113801        2.9721681712113801        1.0000000000000000        0.0000000000000000     
  -1.5625000000000000E-002  0.23437500000000000        2.9678889870312730        2.9678889870312730        1.0000000000000000        0.0000000000000000     
  -1.5625000000000000E-002  0.26562500000000000        2.9636103164400804        2.9636103164400804        1.0000000000000000        0.0000000000000000     
  -1.5625000000000000E-002  0.29687500000000000        2.9601876102253248        2.9325313152224672       0.60000000000000031       0.39999999999999963     
  -1.5625000000000000E-002  0.32812500000000000        2.8404592821315444        2.8404592821315444        0.0000000000000000        1.0000000000000000     
  -1.5625000000000000E-002  0.35937500000000000        2.7126444413195863        2.7126444413195863        0.0000000000000000        1.0000000000000000     
  -1.5625000000000000E-002  0.39062500000000000        2.5922877720209603        2.5922877720209603        0.0000000000000000        1.0000000000000000     
  -1.5625000000000000E-002  0.42187500000000000        2.4824001850441220        2.4824001850441220        0.0000000000000000        1.0000000000000000     
  -1.5625000000000000E-002  0.45312500000000000        2.3850409305162414        2.3850409305162414        0.0000000000000000        1.0000000000000000     
  -1.5625000000000000E-002  0.48437500000000000        2.3012490202488816        2.3012490202488816        0.0000000000000000        1.0000000000000000     
  -1.5625000000000000E-002  0.51562500000000000        2.2311146229574610        2.2311146229574610        0.0000000000000000        1.0000000000000000     
  -1.5625000000000000E-002  0.54687500000000000        2.1739520931769207        2.1739520931769207        0.0000000000000000        1.0000000000000000     
  -1.5625000000000000E-002  0.57812500000000000        2.1285254532137774        2.1285254532137774        0.0000000000000000        1.0000000000000000     
  -1.5625000000000000E-002  0.60937500000000000        2.0932801908549585        2.0932801908549585        0.0000000000000000        1.0000000000000000     
  -1.5625000000000000E-002  0.64062500000000000        2.0665472117748256        2.0665472117748256        0.0000000000000000        1.0000000000000000     
  -1.5625000000000000E-002  0.67187500000000000        2.0466998865879513        2.0466998865879513        0.0000000000000000        1.0000000000000000     
  -1.5625000000000000E-002  0.70312500000000000        2.0322588151995498        2.0322588151995498        0.0000000000000000        1.0000000000000000     
  -1.5625000000000000E-002  0.73437500000000000        2.0219487430689456        2.0219487430689456        0.0000000000000000        1.0000000000000000     
  -1.5625000000000000E-002  0.76562500000000000        2.0147174560473937        2.0147174560473937        0.0000000000000000        1.0000000000000000     
  -1.5625000000000000E-002  0.79687500000000000        2.0097281381551531        2.0097281381551531        0.0000000000000000        1.0000000000000000     
  -1.5625000000000000E-002  0.82812500000000000        2.0063358096322959        2.0063358096322959        0.0000000000000000        1.0000000000000000     
  -1.5625000000000000E-002  0.85937500000000000        2.0040562821412182        2.0040562821412182        0.0000000000000000        1.0000000000000000     
  -1.5625000000000000E-002  0.89062500000000000        2.0025335081512567        2.0025335081512567        0.0000000000000000        1.0000000000000000     
  -1.5625000000000000E-002  0.92187500000000000        2.0015088418651823        2.0015088418651823        0.0000000000000000        1.0000000000000000     
  -1.5625000000000000E-002  0.95312500000000000        2.0007938428358072        2.0007938428358072        0.0000000000000000        1.0000000000000000     
  -1.5625000000000000E-002  0.98437500000000000        2.0002469026294323        2.0002469026294323        0.0000000000000000        1.0000000000000000     
  -1.5625000000000000E-002   1.0156250000000000        2.0000000000000000        2.0000000000000000        0.0000000000000000        1.0000000000000000     
   1.5625000000000000E-002  -1.5625000000000000E-002   3.0021416542842956        3.0021416542842956        1.0000000000000000        0.0000000000000000     
   1.5625000000000000E-002   1.5625000000000000E-002   2.9978583457157044        2.9978583457157044        1.0000000000000000        0.0000000000000000     
   1.5625000000000000E-002   4.6875000000000000E-002   2.9935751691513874        2.9935751691513874        1.0000000000000000        0.0000000000000000     
   1.5625000000000000E-002   7.8125000000000000E-002   2.9892923754647875        2.9892923754647875        1.0000000000000000        0.0000000000000000     
   1.5625000000000000E-002  0.10937500000000000        2.9850101713868229        2.9850101713868229        1.0000000000000000        0.0000000000000000     
   1.5625000000000000E-002  0.14062500000000000        2.9807287034216605        2.9807287034216605        1.0000000000000000        0.0000000000000000     
   1.5625000000000000E-002  0.17187500000000000        2.9764480423670627        2.9764480423670627        1.0000000000000000        0.0000000000000000     
   1.5625000000000000E-002  0.20312500000000000        2.9721681712113801        2.9721681712113801        1.0000000000000000        0.0000000000000000     
   1.5625000000000000E-002  0.23437500000000000        2.9678889870312730        2.9678889870312730        1.0000000000000000        0.0000000000000000     
   1.5625000000000000E-002  0.26562500000000000        2.9636103164400804        2.9636103164400804        1.0000000000000000        0.0000000000000000     
   1.5625000000000000E-002  0.29687500000000000        2.9601876102253248        2.9325313152224672       0.60000000000000031       0.39999999999999963     
   1.5625000000000000E-002  0.32812500000000000        2.8404592821315444        2.8404592821315444        0.0000000000000000        1.0000000000000000     
   1.5625000000000000E-002  0.35937500000000000        2.7126444413195863        2.7126444413195863        0.0000000000000000        1.0000000000000000     
   1.5625000000000000E-002  0.39062500000000000        2.5922877720209603        2.5922877720209603        0.0000000000000000        1.0000000000000000     
   1.5625000000000000E-002  0.42187500000000000        2.4824001850441220        2.4824001850441220        0.0000000000000000        1.0000000000000000     
   1.5625000000000000E-002  0.45312500000000000        2.3850409305162414        2.3850409305162414        0.0000000000000000        1.0000000000000000     
   1.5625000000000000E-002  0.48437500000000000        2.3012490202488816        2.3012490202488816        0.0000000000000000        1.0000000000000000     
   1.5625000000000000E-002  0.51562500000000000        2.2311146229574610        2.2311146229574610        0.0000000000000000        1.0000000000000000     
   1.5625000000000000E-002  0.54687500000000000        2.1739520931769207        2.1739520931769207        0.0000000000000000        1.0000000000000000     
   1.5625000000000000E-002  0.57812500000000000        2.1285254532137774        2.1285254532137774        0.0000000000000000        1.0000000000000000     
   1.5625000000000000E-002  0.60937500000000000        2.0932801908549585        2.0932801908549585        0.0000000000000000        1.0000000000000000     
   1.5625000000000000E-002  0.64062500000000000        2.0665472117748256        2.0665472117748256        0.0000000000000000        1.0000000000000000     
   1.5625000000000000E-002  0.67187500000000000        2.0466998865879513        2.0466998865879513        0.0000000000000000        1.0000000000000000     
   1.5625000000000000E-002  0.70312500000000000        2.0322588151995498        2.0322588151995498        0.0000000000000000        1.0000000000000000     
   1.5625000000000000E-002  0.73437500000000000        2.0219487430689456        2.0219487430689456        0.0000000000000000        1.0000000000000000     
   1.5625000000000000E-002  0.76562500000000000        2.0147174560473937        2.0147174560473937        0.0000000000000000        1.0000000000000000     
   1.5625000000000000E-002  0.79687500000000000        2.0097281381551531        2.0097281381551531        0.0000000000000000        1.0000000000000000     
   1.5625000000000000E-002  0.82812500000000000        2.0063358096322959        2.0063358096322959        0.0000000000000000        1.0000000000000000     
   1.5625000000000000E-002  0.85937500000000000        2.0040562821412182        2.0040562821412182        0.0000000000000000        1.0000000000000000     
   1.5625000000000000E-002  0.89062500000000000        2.0025335081512567        2.0025335081512567        0.0000000000000000        1.0000000000000000     
   1.5625000000000000E-002  0.92187500000000000        2.0015088418651823        2.0015088418651823        0.0000000000000000        1.0000000000000000     
   1.5625000000000000E-002  0.95312500000000000        2.0007938428358072        2.0007938428358072        0.0000000000000000        1.0000000000000000     
   1.5625000000000000E-002  0.98437500000000000        2.0002469026294323        2.0002469026294323        0.0000000000000000        1.0000000000000000     
   1.5625000000000000E-002   1.0156250000000000        1.9997530973705677        1.9997530973705677        0.0000000000000000        1.0000000000000000     
   4.6875000000000000E-002  -1.5625000000000000E-002   3.0021416542842956        3.0021416542842956        1.0000000000000000        0.0000000000000000     
   4.6875000000000000E-002   1.5625000000000000E-002   2.9978583457157044        2.9978583457157044        1.0000000000000000        0.0000000000000000     
   4.6875000000000000E-002   4.6875000000000000E-002   2.9935751691513874        2.9935751691513874        1.0000000000000000        0.0000000000000000     
   4.6875000000000000E-002   7.8125000000000000E-002   2.9892923754647875        2.9892923754647875        1.0000000000000000        0.0000000000000000     
   4.6875000000000000E-002  0.10937500000000000        2.9850101713868229        2.9850101713868229        1.0000000000000000        0.0000000000000000     
   4.6875000000000000E-002  0.14062500000000000        2.9807287034216605        2.9807287034216605        1.0000000000000000        0.0000000000000000     
   4.6875000000000000E-002  0.17187500000000000        2.9764480423670627        2.9764480423670627        1.0000000000000000        0.0000000000000000     
   4.6875000000000000E-002  0.20312500000000000        2.9721681712113801        2.9721681712113801        1.0000000000000000        0.0000000000000000     
   4.6875000000000000E-002  0.23437500000000000        2.9678889870312730        2.9678889870312730        1.0000000000000000        0.0000000000000000     
   4.6875000000000000E-002  0.26562500000000000        2.9636103164400804        2.9636103164400804        1.0000000000000000        0.0000000000000000     
   4.6875000000000000E-002  0.29687500000000000        2.9601876102253248        2.9325313152224681       0.60000000000000031       0.39999999999999963     
   4.6875000000000000E-002  0.32812500000000000        2.8404592821315444        2.8404592821315444        0.0000000000000000        1.0000000000000000     
   4.6875000000000000E-002  0.35937500000000000        2.7126444413195863        2.7126444413195863        0.0000000000000000        1.0000000000000000     
   4.6875000000000000E-002  0.39062500000000000        2.5922877720209603        2.5922877720209603        0.0000000000000000        1.0000000000000000     
   4.6875000000000000E-002  0.42187500000000000        2.4824001850441220        2.4824001850441220        0.0000000000000000        1.0000000000000000     
   4.6875000000000000E-002  0.45312500000000000        2.3850409305162414        2.3850409305162414        0.0000000000000000        1.0000000000000000     
   4.6875000000000000E-002  0.48437500000000000        2.3012490202488816        2.3012490202488816        0.0000000000000000        1.0000000000000000     
   4.6875000000000000E-002  0.51562500000000000        2.2311146229574610        2.2311146229574610        0.0000000000000000        1.0000000000000000     
   4.6875000000000000E-002  0.54687500000000000        2.1739520931769207        2.1739520931769207        0.0000000000000000        1.0000000000000000     
   4.6875000000000000E-002  0.57812500000000000        2.1285254532137774        2.1285254532137774        0.0000000000000000        1.0000000000000000     
   4.6875000000000000E-002  0.60937500000000000        2.0932801908549585        2.0932801908549585        0.0000000000000000        1.0000000000000000     
   4.6875000000000000E-002  0.64062500000000000        2.0665472117748256        2.0665472117748256        0.0000000000000000        1.0000000000000000     
   4.6875000000000000E-002  0.67187500000000000        2.0466998865879513        2.0466998865879513        0.0000000000000000        1.0000000000000000     
   4.6875000000000000E-002  0.70312500000000000        2.0322588151995498        2.0322588151995498        0.0000000000000000        1.0000000000000000     
   4.6875000000000000E-002  0.73437500000000000        2.0219487430689456        2.0219487430689456        0.0000000000000000        1.0000000000000000     
   4.6875000000000000E-002  0.76562500000000000        2.0147174560473937        2.0147174560473937        0.0000000000000000        1.0000000000000000     
   4.6875000000000000E-002  0.79687500000000000        2.0097281381551531        2.0097281381551531        0.0000000000000000        1.0000000000000000     
   4.6875000000000000E-002  0.82812500000000000        2.0063358096322959        2.0063358096322959        0.0000000000000000        1.0000000000000000     
   4.6875000000000000E-002  0.85937500000000000        2.0040562821412182        2.0040562821412182        0.0000000000000000        1.0000000000000000     
   4.6875000000000000E-002  0.89062500000000000        2.0025335081512567        2.0025335081512567        0.0000000000000000        1.0000000000000000     
   4.6875000000000000E-002  0.92187500000000000        2.0015088418651823        2.0015088418651823        0.0000000000000000        1.0000000000000000     
   4.6875000000000000E-002  0.95312500000000000        2.0007938428358072        2.0007938428358072        0.0000000000000000        1.0000000000000000     
   4.6875000000000000E-002  0.98437500000000000        2.0002469026294323        2.0002469026294323        0.0000000000000000        1.0000000000000000     
   4.6875000000000000E-002   1.0156250000000000        1.9997530973705677        1.9997530973705677        0.0000000000000000        1.0000000000000000     
   7.8125000000000000E-002  -1.5625000000000000E-002   3.0021416542842956        3.0021416542842956        1.0000000000000000        0.0000000000000000     
   7.8125000000000000E-002   1.5625000000000000E-002   2.9978583457157044        2.9978583457157044        1.0000000000000000        0.0000000000000000     
   7.8125000000000000E-002   4.6875000000000000E-002   2.9935751691513874        2.9935751691513874        1.0000000000000000        0.0000000000000000     
   7.8125000000000000E-002   7.8125000000000000E-002   2.9892923754647875        2.9892923754647875        1.0000000000000000        0.0000000000000000     
   7.8125000000000000E-002  0.10937500000000000        2.9850101713868229        2.9850101713868229        1.0000000000000000        0.0000000000000000     
   7.8125000000000000E-002  0.14062500000000000        2.9807287034216605        2.9807287034216605        1.0000000000000000        0.0000000000000000     
   7.8125000000000000E-002  0.17187500000000000        2.9764480423670627        2.9764480423670627        1.0000000000000000        0.0000000000000000     
   7.8125000000000000E-002  0.20312500000000000        2.9721681712113801        2.9721681712113801        1.0000000000000000        0.0000000000000000     
   7.8125000000000000E-002  0.23437500000000000        2.9678889870312730        2.9678889870312730        1.0000000000000000        0.0000000000000000     
   7.8125000000000000E-002  0.26562500000000000        2.9636103164400804        2.9636103164400804        1.0000000000000000        0.0000000000000000     
   7.8125000000000000E-002  0.29687500000000000        2.9601876102253248        2.9325313152224690       0.60000000000000031       0.39999999999999963     
   7.8125000000000000E-002  0.32812500000000000        2.8404592821315444        2.8404592821315444        0.0000000000000000        1.0000000000000000     
   7.8125000000000000E-002  0.35937500000000000        2.7126444413195863        2.7126444413195863        0.0000000000000000        1.0000000000000000     
   7.8125000000000000E-002  0.39062500000000000        2.5922877720209603        2.5922877720209603        0.0000000000000000        1.0000000000000000     
   7.8125000000000000E-002  0.42187500000000000        2.4824001850441220        2.4824001850441220        0.0000000000000000        1.0000000000000000     
   7.8125000000000000E-002  0.45312500000000000        2.3850409305162414        2.3850409305162414        0.0000000000000000        1.0000000000000000     
   7.8125000000000000E-002  0.48437500000000000        2.3012490202488816        2.3012490202488816        0.0000000000000000        1.0000000000000000     
   7.8125000000000000E-002  0.51562500000000000        2.2311146229574610        2.2311146229574610        0.0000000000000000        1.0000000000000000     
   7.8125000000000000E-002  0.54687500000000000        2.1739520931769207        2.1739520931769207        0.0000000000000000        1.0000000000000000     
   7.8125000000000000E-002  0.57812500000000000        2.1285254532137774        2.1285254532137774        0.0000000000000000        1.0000000000000000     
   7.8125000000000000E-002  0.60937500000000000        2.0932801908549585        2.0932801908549585        0.0000000000000000        1.0000000000000000     
   7.8125000000000000E-002  0.64062500000000000        2.0665472117748256        2.0665472117748256        0.0000000000000000        1.0000000000000000     
   7.8125000000000000E-002  0.67187500000000000        2.0466998865879518        2.0466998865879518        0.0000000000000000        1.0000000000000000     
   7.8125000000000000E-002  0.70312500000000000        2.0322588151995498        2.0322588151995498        0.0000000000000000        1.0000000000000000     
   7.8125000000000000E-002  0.73437500000000000        2.0219487430689456        2.0219487430689456        0.0000000000000000        1.0000000000000000     
   7.8125000000000000E-002  0.76562500000000000        2.0147174560473937        2.0147174560473937        0.0000000000000000        1.0000000000000000     
   7.8125000000000000E-002  0.79687500000000000        2.0097281381551531        2.0097281381551531        0.0000000000000000        1.0000000000000000     
   7.8125000000000000E-002  0.82812500000000000        2.0063358096322959        2.0063358096322959        0.0000000000000000        1.0000000000000000     
   7.8125000000000000E-002  0.85937500000000000        2.0040562821412182        2.0040562821412182        0.0000000000000000        1.0000000000000000     
   7.8125000000000000E-002  0.89062500000000000        2.0025335081512567        2.0025335081512567        0.0000000000000000        1.0000000000000000     
   7.8125000000000000E-002  0.92187500000000000        2.0015088418651823        2.0015088418651823        0.0000000000000000        1.0000000000000000     
   7.8125000000000000E-002  0.95312500000000000        2.0007938428358067        2.0007938428358067        0.0000000000000000        1.0000000000000000     
   7.8125000000000000E-002  0.98437500000000000        2.0002469026294323        2.0002469026294323        0.0000000000000000        1.0000000000000000     
   7.8125000000000000E-002   1.0156250000000000        1.9997530973705677        1.9997530973705677        0.0000000000000000        1.0000000000000000     
  0.10937500000000000       -1.5625000000000000E-002   3.0021416542842960        3.0021416542842960        1.0000000000000000        0.0000000000000000     
  0.10937500000000000        1.5625000000000000E-002   2.9978583457157040        2.9978583457157040        1.0000000000000000        0.0000000000000000     
  0.10937500000000000        4.6875000000000000E-002   2.9935751691513874        2.9935751691513874        1.0000000000000000        0.0000000000000000     
  0.10937500000000000        7.8125000000000000E-002   2.9892923754647875        2.9892923754647875        1.0000000000000000        0.0000000000000000     
  0.10937500000000000       0.10937500000000000        2.9850101713868229        2.9850101713868229        1.0000000000000000        0.0000000000000000     
  0.10937500000000000       0.14062500000000000        2.9807287034216605        2.9807287034216605        1.0000000000000000        0.0000000000000000     
  0.10937500000000000       0.17187500000000000        2.9764480423670627        2.9764480423670627        1.0000000000000000        0.0000000000000000     
  0.10937500000000000       0.20312500000000000        2.9721681712113801        2.9721681712113801        1.0000000000000000        0.0000000000000000     
  0.10937500000000000       0.23437500000000000        2.9678889870312730        2.9678889870312730        1.0000000000000000        0.0000000000000000     
  0.10937500000000000       0.26562500000000000        2.9636103164400804        2.9636103164400804        1.0000000000000000        0.0000000000000000     
  0.10937500000000000       0.29687500000000000        2.9601876102253248        2.9325313152224650       0.60000000000000031       0.39999999999999963     
  0.10937500000000000       0.32812500000000000        2.8404592821315444        2.8404592821315444        0.0000000000000000        1.0000000000000000     
  0.10937500000000000       0.35937500000000000        2.7126444413195867        2.7126444413195867        0.0000000000000000        1.0000000000000000     
  0.10937500000000000       0.39062500000000000        2.5922877720209603        2.5922877720209603        0.0000000000000000        1.0000000000000000     
  0.10937500000000000       0.42187500000000000        2.4824001850441220        2.4824001850441220        0.0000000000000000        1.0000000000000000     
  0.10937500000000000       0.45312500000000000        2.3850409305162414        2.3850409305162414        0.0000000000000000        1.0000000000000000     
  0.10937500000000000       0.48437500000000000        2.3012490202488816        2.3012490202488816        0.0000000000000000        1.0000000000000000     
  0.10937500000000000       0.51562500000000000        2.2311146229574610        2.2311146229574610        0.0000000000000000        1.0000000000000000     
  0.10937500000000000       0.54687500000000000        2.1739520931769207        2.1739520931769207        0.0000000000000000        1.0000000000000000     
  0.10937500000000000       0.57812500000000000        2.1285254532137778        2.1285254532137778        0.0000000000000000        1.0000000000000000     
  0.10937500000000000       0.60937500000000000        2.0932801908549585        2.0932801908549585        0.0000000000000000        1.0000000000000000     
  0.10937500000000000       0.64062500000000000        2.0665472117748256        2.0665472117748256        0.0000000000000000        1.0000000000000000     
  0.10937500000000000       0.67187500000000000        2.0466998865879518        2.0466998865879518        0.0000000000000000        1.0000000000000000     
  0.10937500000000000       0.70312500000000000        2.0322588151995498        2.0322588151995498        0.0000000000000000        1.0000000000000000     
  0.10937500000000000       0.73437500000000000        2.0219487430689456        2.0219487430689456        0.0000000000000000        1.0000000000000000     
  0.10937500000000000       0.76562500000000000        2.0147174560473937        2.0147174560473937        0.0000000000000000        1.0000000000000000     
  0.10937500000000000       0.79687500000000000        2.0097281381551531        2.0097281381551531        0.0000000000000000        1.0000000000000000     
  0.10937500000000000       0.82812500000000000        2.0063358096322963        2.0063358096322963        0.0000000000000000        1.0000000000000000     
  0.10937500000000000       0.85937500000000000        2.0040562821412182        2.0040562821412182        0.0000000000000000        1.0000000000000000     
  0.10937500000000000       0.89062500000000000        2.0025335081512567        2.0025335081512567        0.0000000000000000        1.0000000000000000     
  0.10937500000000000       0.92187500000000000        2.0015088418651823        2.0015088418651823        0.0000000000000000        1.0000000000000000     
  0.10937500000000000       0.95312500000000000        2.0007938428358067        2.0007938428358067        0.0000000000000000        1.0000000000000000     
  0.10937500000000000       0.98437500000000000        2.0002469026294323        2.0002469026294323        0.0000000000000000        1.0000000000000000     
  0.10937500000000000        1.0156250000000000        1.9997530973705677        1.9997530973705677        0.0000000000000000        1.0000000000000000     
  0.14062500000000000       -1.5625000000000000E-002   3.0021416542842960        3.0021416542842960        1.0000000000000000        0.0000000000000000     
  0.14062500000000000        1.5625000000000000E-002   2.9978583457157040        2.9978583457157040        1.0000000000000000        0.0000000000000000     
  0.14062500000000000        4.6875000000000000E-002   2.9935751691513874        2.9935751691513874        1.0000000000000000        0.0000000000000000     
  0.14062500000000000        7.8125000000000000E-002   2.9892923754647875        2.9892923754647875        1.0000000000000000        0.0000000000000000     
  0.14062500000000000       0.10937500000000000        2.9850101713868229        2.9850101713868229        1.0000000000000000        0.0000000000000000     
  0.14062500000000000       0.14062500000000000        2.9807287034216605        2.9807287034216605        1.0000000000000000        0.0000000000000000     
  0.14062500000000000       0.17187500000000000        2.9764480423670627        2.9764480423670627        1.0000000000000000        0.0000000000000000     
  0.14062500000000000       0.20312500000000000        2.9721681712113801        2.9721681712113801        1.0000000000000000        0.0000000000000000     
  0.14062500000000000       0.23437500000000000        2.9678889870312730        2.9678889870312730        1.0000000000000000        0.0000000000000000     
  0.14062500000000000       0.26562500000000000        2.9636103164400804        2.9636103164400804        1.0000000000000000        0.0000000000000000     
  0.14062500000000000       0.29687500000000000        2.9601876102253248        2.9325313152224655       0.60000000000000031       0.39999999999999963     
  0.14062500000000000       0.32812500000000000        2.8404592821315449        2.8404592821315449        0.0000000000000000        1.0000000000000000     
  0.14062500000000000       0.35937500000000000        2.7126444413195867        2.7126444413195867        0.0000000000000000        1.0000000000000000     
  0.14062500000000000       0.39062500000000000        2.5922877720209603        2.5922877720209603        0.0000000000000000        1.0000000000000000     
  0.14062500000000000       0.42187500000000000        2.4824001850441220        2.4824001850441220        0.0000000000000000        1.0000000000000000     
  0.14062500000000000       0.45312500000000000        2.3850409305162414        2.3850409305162414        0.0000000000000000        1.0000000000000000     
  0.14062500000000000       0.48437500000000000        2.3012490202488816        2.3012490202488816        0.0000000000000000        1.0000000000000000     
  0.14062500000000000       0.51562500000000000        2.2311146229574610        2.2311146229574610        0.0000000000000000        1.0000000000000000     
  0.14062500000000000       0.54687500000000000        2.1739520931769207        2.1739520931769207        0.0000000000000000        1.0000000000000000     
  0.14062500000000000       0.57812500000000000        2.1285254532137778        2.1285254532137778        0.0000000000000000        1.0000000000000000     