 VARIABLES="X","Y","U1","U2","F1","F2"
 zone i=          34  j=          34  f=point
 SOLUTIONTIME=   6.2500000000000000E-002  STRANDID=           6
  -1.5625000000000000E-002  -1.5625000000000000E-002   2.0000000000000000        2.0000000000000000        1.0000000000000000        0.0000000000000000     
  -1.5625000000000000E-002   1.5625000000000000E-002   2.9950605052016539        2.9950605052016539        1.0000000000000000        0.0000000000000000     
  -1.5625000000000000E-002   4.6875000000000000E-002   2.9854791371153282        2.9854791371153282        1.0000000000000000        0.0000000000000000     
  -1.5625000000000000E-002   7.8125000000000000E-002   2.9767584429829235        2.9767584429829235        1.0000000000000000        0.0000000000000000     
  -1.5625000000000000E-002  0.10937500000000000        2.9693689548363840        2.9693689548363840        1.0000000000000000        0.0000000000000000     
  -1.5625000000000000E-002  0.14062500000000000        2.9636392158912415        2.9636392158912415        1.0000000000000000        0.0000000000000000     
  -1.5625000000000000E-002  0.17187500000000000        2.9597219085831363        2.9597219085831363        1.0000000000000000        0.0000000000000000     
  -1.5625000000000000E-002  0.20312500000000000        2.9575783765856767        2.9575783765856767        1.0000000000000000        0.0000000000000000     
  -1.5625000000000000E-002  0.23437500000000000        2.9569826802002392        2.9569826802002392        1.0000000000000000        0.0000000000000000     
  -1.5625000000000000E-002  0.26562500000000000        2.9575448354104923        2.9575448354104923        1.0000000000000000        0.0000000000000000     
  -1.5625000000000000E-002  0.29687500000000000        2.9585100639459800        2.9119568458977096       0.60000000000000031       0.39999999999999963     
  -1.5625000000000000E-002  0.32812500000000000        2.7491482922804056        2.7491482922804056        0.0000000000000000        1.0000000000000000     
  -1.5625000000000000E-002  0.35937500000000000        2.5400837842212134        2.5400837842212134        0.0000000000000000        1.0000000000000000     
  -1.5625000000000000E-002  0.39062500000000000        2.3700634472112148        2.3700634472112148        0.0000000000000000        1.0000000000000000     
  -1.5625000000000000E-002  0.42187500000000000        2.2425971736722241        2.2425971736722241        0.0000000000000000        1.0000000000000000     
  -1.5625000000000000E-002  0.45312500000000000        2.1530938243977515        2.1530938243977515        0.0000000000000000        1.0000000000000000     
  -1.5625000000000000E-002  0.48437500000000000        2.0934988055420032        2.0934988055420032        0.0000000000000000        1.0000000000000000     
  -1.5625000000000000E-002  0.51562500000000000        2.0555113130522593        2.0555113130522593        0.0000000000000000        1.0000000000000000     
  -1.5625000000000000E-002  0.54687500000000000        2.0321596131515092        2.0321596131515092        0.0000000000000000        1.0000000000000000     
  -1.5625000000000000E-002  0.57812500000000000        2.0182367882036916        2.0182367882036916        0.0000000000000000        1.0000000000000000     
  -1.5625000000000000E-002  0.60937500000000000        2.0101490317096591        2.0101490317096591        0.0000000000000000        1.0000000000000000     
  -1.5625000000000000E-002  0.64062500000000000        2.0055550487884499        2.0055550487884499        0.0000000000000000        1.0000000000000000     
  -1.5625000000000000E-002  0.67187500000000000        2.0029959763029592        2.0029959763029592        0.0000000000000000        1.0000000000000000     
  -1.5625000000000000E-002  0.70312500000000000        2.0015946136774896        2.0015946136774896        0.0000000000000000        1.0000000000000000     
  -1.5625000000000000E-002  0.73437500000000000        2.0008387235210385        2.0008387235210385        0.0000000000000000        1.0000000000000000     
  -1.5625000000000000E-002  0.76562500000000000        2.0004364380543578        2.0004364380543578        0.0000000000000000        1.0000000000000000     
  -1.5625000000000000E-002  0.79687500000000000        2.0002248943818293        2.0002248943818293        0.0000000000000000        1.0000000000000000     
  -1.5625000000000000E-002  0.82812500000000000        2.0001148375563291        2.0001148375563291        0.0000000000000000        1.0000000000000000     
  -1.5625000000000000E-002  0.85937500000000000        2.0000581097069099        2.0000581097069099        0.0000000000000000        1.0000000000000000     
  -1.5625000000000000E-002  0.89062500000000000        2.0000290696131353        2.0000290696131353        0.0000000000000000        1.0000000000000000     
  -1.5625000000000000E-002  0.92187500000000000        2.0000142013340474        2.0000142013340474        0.0000000000000000        1.0000000000000000     
  -1.5625000000000000E-002  0.95312500000000000        2.0000063958921808        2.0000063958921808        0.0000000000000000        1.0000000000000000     
  -1.5625000000000000E-002  0.98437500000000000        2.0000018224391996        2.0000018224391996        0.0000000000000000        1.0000000000000000     
  -1.5625000000000000E-002   1.0156250000000000        2.0000000000000000        2.0000000000000000        0.0000000000000000        1.0000000000000000     
   1.5625000000000000E-002  -1.5625000000000000E-002   3.0049394947983461        3.0049394947983461        1.0000000000000000        0.0000000000000000     
   1.5625000000000000E-002   1.5625000000000000E-002   2.9950605052016539        2.9950605052016539        1.0000000000000000        0.0000000000000000     
   1.5625000000000000E-002   4.6875000000000000E-002   2.9854791371153282        2.9854791371153282        1.0000000000000000        0.0000000000000000     
   1.5625000000000000E-002   7.8125000000000000E-002   2.9767584429829235        2.9767584429829235        1.0000000000000000        0.0000000000000000     
   1.5625000000000000E-002  0.10937500000000000        2.9693689548363840        2.9693689548363840        1.0000000000000000        0.0000000000000000     
   1.5625000000000000E-002  0.14062500000000000        2.9636392158912415        2.9636392158912415        1.0000000000000000        0.0000000000000000     
   1.5625000000000000E-002  0.17187500000000000        2.9597219085831363        2.9597219085831363        1.0000000000000000        0.0000000000000000     
   1.5625000000000000E-002  0.20312500000000000        2.9575783765856767        2.9575783765856767        1.0000000000000000        0.0000000000000000     
   1.5625000000000000E-002  0.23437500000000000        2.9569826802002392        2.9569826802002392        1.0000000000000000        0.0000000000000000     
   1.5625000000000000E-002  0.26562500000000000        2.9575448354104923        2.9575448354104923        1.0000000000000000        0.0000000000000000     
   1.5625000000000000E-002  0.29687500000000000        2.9585100639459800        2.9119568458977096       0.60000000000000031       0.39999999999999963     
   1.5625000000000000E-002  0.32812500000000000        2.7491482922804056        2.7491482922804056        0.0000000000000000        1.0000000000000000     
   1.5625000000000000E-002  0.35937500000000000        2.5400837842212134        2.5400837842212134        0.0000000000000000        1.0000000000000000     
   1.5625000000000000E-002  0.39062500000000000        2.3700634472112148        2.3700634472112148        0.0000000000000000        1.0000000000000000     
   1.5625000000000000E-002  0.42187500000000000        2.2425971736722241        2.2425971736722241        0.0000000000000000        1.0000000000000000     
   1.5625000000000000E-002  0.45312500000000000        2.1530938243977515        2.1530938243977515        0.0000000000000000        1.0000000000000000     
   1.5625000000000000E-002  0.48437500000000000        2.0934988055420032        2.0934988055420032        0.0000000000000000        1.0000000000000000     
   1.5625000000000000E-002  0.51562500000000000        2.0555113130522593        2.0555113130522593        0.0000000000000000        1.0000000000000000     
   1.5625000000000000E-002  0.54687500000000000        2.0321596131515092        2.0321596131515092        0.0000000000000000        1.0000000000000000     
   1.5625000000000000E-002  0.57812500000000000        2.0182367882036916        2.0182367882036916        0.0000000000000000        1.0000000000000000     
   1.5625000000000000E-002  0.60937500000000000        2.0101490317096591        2.0101490317096591        0.0000000000000000        1.0000000000000000     
   1.5625000000000000E-002  0.64062500000000000        2.0055550487884499        2.0055550487884499        0.0000000000000000        1.0000000000000000     
   1.5625000000000000E-002  0.67187500000000000        2.0029959763029592        2.0029959763029592        0.0000000000000000        1.0000000000000000     
   1.5625000000000000E-002  0.70312500000000000        2.0015946136774896        2.0015946136774896        0.0000000000000000        1.0000000000000000     
   1.5625000000000000E-002  0.73437500000000000        2.0008387235210385        2.0008387235210385        0.0000000000000000        1.0000000000000000     
   1.5625000000000000E-002  0.76562500000000000        2.0004364380543578        2.0004364380543578        0.0000000000000000        1.0000000000000000     
   1.5625000000000000E-002  0.79687500000000000        2.0002248943818293        2.0002248943818293        0.0000000000000000        1.0000000000000000     
   1.5625000000000000E-002  0.82812500000000000        2.0001148375563291        2.0001148375563291        0.0000000000000000        1.0000000000000000     
   1.5625000000000000E-002  0.85937500000000000        2.0000581097069099        2.0000581097069099        0.0000000000000000        1.0000000000000000     
   1.5625000000000000E-002  0.89062500000000000        2.0000290696131353        2.0000290696131353        0.0000000000000000        1.0000000000000000     
   1.5625000000000000E-002  0.92187500000000000        2.0000142013340474        2.0000142013340474        0.0000000000000000        1.0000000000000000     
   1.5625000000000000E-002  0.95312500000000000        2.0000063958921808        2.0000063958921808        0.0000000000000000        1.0000000000000000     
   1.5625000000000000E-002  0.98437500000000000        2.0000018224391996        2.0000018224391996        0.0000000000000000        1.0000000000000000     
   1.5625000000000000E-002   1.0156250000000000        1.9999981775608004        1.9999981775608004        0.0000000000000000        1.0000000000000000     
   4.6875000000000000E-002  -1.5625000000000000E-002   3.0049394947983461        3.0049394947983461        1.0000000000000000        0.0000000000000000     
   4.6875000000000000E-002   1.5625000000000000E-002   2.9950605052016539        2.9950605052016539        1.0000000000000000        0.0000000000000000     
   4.6875000000000000E-002   4.6875000000000000E-002   2.9854791371153282        2.9854791371153282        1.0000000000000000        0.0000000000000000     
   4.6875000000000000E-002   7.8125000000000000E-002   2.9767584429829235        2.9767584429829235        1.0000000000000000        0.0000000000000000     
   4.6875000000000000E-002  0.10937500000000000        2.9693689548363840        2.9693689548363840        1.0000000000000000        0.0000000000000000     
   4.6875000000000000E-002  0.14062500000000000        2.9636392158912415        2.9636392158912415        1.0000000000000000        0.0000000000000000     
   4.6875000000000000E-002  0.17187500000000000        2.9597219085831363        2.9597219085831363        1.0000000000000000        0.0000000000000000     
   4.6875000000000000E-002  0.20312500000000000        2.9575783765856767        2.9575783765856767        1.0000000000000000        0.0000000000000000     
   4.6875000000000000E-002  0.23437500000000000        2.9569826802002392        2.9569826802002392        1.0000000000000000        0.0000000000000000     
   4.6875000000000000E-002  0.26562500000000000        2.9575448354104923        2.9575448354104923        1.0000000000000000        0.0000000000000000     
   4.6875000000000000E-002  0.29687500000000000        2.9585100639459800        2.9119568458977110       0.60000000000000031       0.39999999999999963     
   4.6875000000000000E-002  0.32812500000000000        2.7491482922804056        2.7491482922804056        0.0000000000000000        1.0000000000000000     
   4.6875000000000000E-002  0.35937500000000000        2.5400837842212134        2.5400837842212134        0.0000000000000000        1.0000000000000000     
   4.6875000000000000E-002  0.39062500000000000        2.3700634472112148        2.3700634472112148        0.0000000000000000        1.0000000000000000     
   4.6875000000000000E-002  0.42187500000000000        2.2425971736722241        2.2425971736722241        0.0000000000000000        1.0000000000000000     
   4.6875000000000000E-002  0.45312500000000000        2.1530938243977515        2.1530938243977515        0.0000000000000000        1.0000000000000000     
   4.6875000000000000E-002  0.48437500000000000        2.0934988055420032        2.0934988055420032        0.0000000000000000        1.0000000000000000     
   4.6875000000000000E-002  0.51562500000000000        2.0555113130522593        2.0555113130522593        0.0000000000000000        1.0000000000000000     
   4.6875000000000000E-002  0.54687500000000000        2.0321596131515092        2.0321596131515092        0.0000000000000000        1.0000000000000000     
   4.6875000000000000E-002  0.57812500000000000        2.0182367882036916        2.0182367882036916        0.0000000000000000        1.0000000000000000     
   4.6875000000000000E-002  0.60937500000000000        2.0101490317096591        2.0101490317096591        0.0000000000000000        1.0000000000000000     
   4.6875000000000000E-002  0.64062500000000000        2.0055550487884499        2.0055550487884499        0.0000000000000000        1.0000000000000000     
   4.6875000000000000E-002  0.67187500000000000        2.0029959763029592        2.0029959763029592        0.0000000000000000        1.0000000000000000     
   4.6875000000000000E-002  0.70312500000000000        2.0015946136774896        2.0015946136774896        0.0000000000000000        1.0000000000000000     
   4.6875000000000000E-002  0.73437500000000000        2.0008387235210385        2.0008387235210385        0.0000000000000000        1.0000000000000000     
   4.6875000000000000E-002  0.76562500000000000        2.0004364380543578        2.0004364380543578        0.0000000000000000        1.0000000000000000     
   4.6875000000000000E-002  0.79687500000000000        2.0002248943818293        2.0002248943818293        0.0000000000000000        1.0000000000000000     
   4.6875000000000000E-002  0.82812500000000000        2.0001148375563291        2.0001148375563291        0.0000000000000000        1.0000000000000000     
   4.6875000000000000E-002  0.85937500000000000        2.0000581097069099        2.0000581097069099        0.0000000000000000        1.0000000000000000     
   4.6875000000000000E-002  0.89062500000000000        2.0000290696131353        2.0000290696131353        0.0000000000000000        1.0000000000000000     
   4.6875000000000000E-002  0.92187500000000000        2.0000142013340474        2.0000142013340474        0.0000000000000000        1.0000000000000000     
   4.6875000000000000E-002  0.95312500000000000        2.0000063958921808        2.0000063958921808        0.0000000000000000        1.0000000000000000     
   4.6875000000000000E-002  0.98437500000000000        2.0000018224391996        2.0000018224391996        0.0000000000000000        1.0000000000000000     
   4.6875000000000000E-002   1.0156250000000000        1.9999981775608004        1.9999981775608004        0.0000000000000000        1.0000000000000000     
   7.8125000000000000E-002  -1.5625000000000000E-002   3.0049394947983461        3.0049394947983461        1.0000000000000000        0.0000000000000000     
   7.8125000000000000E-002   1.5625000000000000E-002   2.9950605052016539        2.9950605052016539        1.0000000000000000        0.0000000000000000     
   7.8125000000000000E-002   4.6875000000000000E-002   2.9854791371153282        2.9854791371153282        1.0000000000000000        0.0000000000000000     
   7.8125000000000000E-002   7.8125000000000000E-002   2.9767584429829235        2.9767584429829235        1.0000000000000000        0.0000000000000000     
   7.8125000000000000E-002  0.10937500000000000        2.9693689548363840        2.9693689548363840        1.0000000000000000        0.0000000000000000     
   7.8125000000000000E-002  0.14062500000000000        2.9636392158912415        2.9636392158912415        1.0000000000000000        0.0000000000000000     
   7.8125000000000000E-002  0.17187500000000000        2.9597219085831363        2.9597219085831363        1.0000000000000000        0.0000000000000000     
   7.8125000000000000E-002  0.20312500000000000        2.9575783765856767        2.9575783765856767        1.0000000000000000        0.0000000000000000     
   7.8125000000000000E-002  0.23437500000000000        2.9569826802002392        2.9569826802002392        1.0000000000000000        0.0000000000000000     
   7.8125000000000000E-002  0.26562500000000000        2.9575448354104923        2.9575448354104923        1.0000000000000000        0.0000000000000000     
   7.8125000000000000E-002  0.29687500000000000        2.9585100639459800        2.9119568458977128       0.60000000000000031       0.39999999999999963     
   7.8125000000000000E-002  0.32812500000000000        2.7491482922804051        2.7491482922804051        0.0000000000000000        1.0000000000000000     
   7.8125000000000000E-002  0.35937500000000000        2.5400837842212134        2.5400837842212134        0.0000000000000000        1.0000000000000000     
   7.8125000000000000E-002  0.39062500000000000        2.3700634472112148        2.3700634472112148        0.0000000000000000        1.0000000000000000     
   7.8125000000000000E-002  0.42187500000000000        2.2425971736722241        2.2425971736722241        0.0000000000000000        1.0000000000000000     
   7.8125000000000000E-002  0.45312500000000000        2.1530938243977515        2.1530938243977515        0.0000000000000000        1.0000000000000000     
   7.8125000000000000E-002  0.48437500000000000        2.0934988055420032        2.0934988055420032        0.0000000000000000        1.0000000000000000     
   7.8125000000000000E-002  0.51562500000000000        2.0555113130522593        2.0555113130522593        0.0000000000000000        1.0000000000000000     
   7.8125000000000000E-002  0.54687500000000000        2.0321596131515092        2.0321596131515092        0.0000000000000000        1.0000000000000000     
   7.8125000000000000E-002  0.57812500000000000        2.0182367882036916        2.0182367882036916        0.0000000000000000        1.0000000000000000     
   7.8125000000000000E-002  0.60937500000000000        2.0101490317096591        2.0101490317096591        0.0000000000000000        1.0000000000000000     
   7.8125000000000000E-002  0.64062500000000000        2.0055550487884499        2.0055550487884499        0.0000000000000000        1.0000000000000000     
   7.8125000000000000E-002  0.67187500000000000        2.0029959763029592        2.0029959763029592        0.0000000000000000        1.0000000000000000     
   7.8125000000000000E-002  0.70312500000000000        2.0015946136774896        2.0015946136774896        0.0000000000000000        1.0000000000000000     
   7.8125000000000000E-002  0.73437500000000000        2.0008387235210385        2.0008387235210385        0.0000000000000000        1.0000000000000000     
   7.8125000000000000E-002  0.76562500000000000        2.0004364380543578        2.0004364380543578        0.0000000000000000        1.0000000000000000     
   7.8125000000000000E-002  0.79687500000000000        2.0002248943818293        2.0002248943818293        0.0000000000000000        1.0000000000000000     
   7.8125000000000000E-002  0.82812500000000000        2.0001148375563291        2.0001148375563291        0.0000000000000000        1.0000000000000000     
   7.8125000000000000E-002  0.85937500000000000        2.0000581097069099        2.0000581097069099        0.0000000000000000        1.0000000000000000     
   7.8125000000000000E-002  0.89062500000000000        2.0000290696131353        2.0000290696131353        0.0000000000000000        1.0000000000000000     
   7.8125000000000000E-002  0.92187500000000000        2.0000142013340474        2.0000142013340474        0.0000000000000000        1.0000000000000000     
   7.8125000000000000E-002  0.95312500000000000        2.0000063958921808        2.0000063958921808        0.0000000000000000        1.0000000000000000     
   7.8125000000000000E-002  0.98437500000000000        2.0000018224391996        2.0000018224391996        0.0000000000000000        1.0000000000000000     
   7.8125000000000000E-002   1.0156250000000000        1.9999981775608004        1.9999981775608004        0.0000000000000000        1.0000000000000000     
  0.10937500000000000       -1.5625000000000000E-002   3.0049394947983461        3.0049394947983461        1.0000000000000000        0.0000000000000000     
  0.10937500000000000        1.5625000000000000E-002   2.9950605052016539        2.9950605052016539        1.0000000000000000        0.0000000000000000     
  0.10937500000000000        4.6875000000000000E-002   2.9854791371153282        2.9854791371153282        1.0000000000000000        0.0000000000000000     
  0.10937500000000000        7.8125000000000000E-002   2.9767584429829235        2.9767584429829235        1.0000000000000000        0.0000000000000000     
  0.10937500000000000       0.10937500000000000        2.9693689548363840        2.9693689548363840        1.0000000000000000        0.0000000000000000     
  0.10937500000000000       0.14062500000000000        2.9636392158912410        2.9636392158912410        1.0000000000000000        0.0000000000000000     
  0.10937500000000000       0.17187500000000000        2.9597219085831363        2.9597219085831363        1.0000000000000000        0.0000000000000000     
  0.10937500000000000       0.20312500000000000        2.9575783765856767        2.9575783765856767        1.0000000000000000        0.0000000000000000     
  0.10937500000000000       0.23437500000000000        2.9569826802002392        2.9569826802002392        1.0000000000000000        0.0000000000000000     
  0.10937500000000000       0.26562500000000000        2.9575448354104927        2.9575448354104927        1.0000000000000000        0.0000000000000000     
  0.10937500000000000       0.29687500000000000        2.9585100639459800        2.9119568458977061       0.60000000000000031       0.39999999999999963     
  0.10937500000000000       0.32812500000000000        2.7491482922804056        2.7491482922804056        0.0000000000000000        1.0000000000000000     
  0.10937500000000000       0.35937500000000000        2.5400837842212138        2.5400837842212138        0.0000000000000000        1.0000000000000000     
  0.10937500000000000       0.39062500000000000        2.3700634472112148        2.3700634472112148        0.0000000000000000        1.0000000000000000     
  0.10937500000000000       0.42187500000000000        2.2425971736722241        2.2425971736722241        0.0000000000000000        1.0000000000000000     
  0.10937500000000000       0.45312500000000000        2.1530938243977520        2.1530938243977520        0.0000000000000000        1.0000000000000000     
  0.10937500000000000       0.48437500000000000        2.0934988055420036        2.0934988055420036        0.0000000000000000        1.0000000000000000     
  0.10937500000000000       0.51562500000000000        2.0555113130522593        2.0555113130522593        0.0000000000000000        1.0000000000000000     
  0.10937500000000000       0.54687500000000000        2.0321596131515092        2.0321596131515092        0.0000000000000000        1.0000000000000000     
  0.10937500000000000       0.57812500000000000        2.0182367882036916        2.0182367882036916        0.0000000000000000        1.0000000000000000     
  0.10937500000000000       0.60937500000000000        2.0101490317096591        2.0101490317096591        0.0000000000000000        1.0000000000000000     
  0.10937500000000000       0.64062500000000000        2.0055550487884499        2.0055550487884499        0.0000000000000000        1.0000000000000000     
  0.10937500000000000       0.67187500000000000        2.0029959763029592        2.0029959763029592        0.0000000000000000        1.0000000000000000     
  0.10937500000000000       0.70312500000000000        2.0015946136774896        2.0015946136774896        0.0000000000000000        1.0000000000000000     
  0.10937500000000000       0.73437500000000000        2.0008387235210385        2.0008387235210385        0.0000000000000000        1.0000000000000000     
  0.10937500000000000       0.76562500000000000        2.0004364380543573        2.0004364380543573        0.0000000000000000        1.0000000000000000     
  0.10937500000000000       0.79687500000000000        2.0002248943818293        2.0002248943818293        0.0000000000000000        1.0000000000000000     
  0.10937500000000000       0.82812500000000000        2.0001148375563291        2.0001148375563291        0.0000000000000000        1.0000000000000000     
  0.10937500000000000       0.85937500000000000        2.0000581097069099        2.0000581097069099        0.0000000000000000        1.0000000000000000     
  0.10937500000000000       0.89062500000000000        2.0000290696131353        2.0000290696131353        0.0000000000000000        1.0000000000000000     
  0.10937500000000000       0.92187500000000000        2.0000142013340474        2.0000142013340474        0.0000000000000000        1.0000000000000000     
  0.10937500000000000       0.95312500000000000        2.0000063958921808        2.0000063958921808        0.0000000000000000        1.0000000000000000     
  0.10937500000000000       0.98437500000000000        2.0000018224391996        2.0000018224391996        0.0000000000000000        1.0000000000000000     
  0.10937500000000000        1.0156250000000000        1.9999981775608004        1.9999981775608004        0.0000000000000000        1.0000000000000000     
  0.14062500000000000       -1.5625000000000000E-002   3.0049394947983461        3.0049394947983461        1.0000000000000000        0.0000000000000000     
  0.14062500000000000        1.5625000000000000E-002   2.9950605052016539        2.9950605052016539        1.0000000000000000        0.0000000000000000     
  0.14062500000000000        4.6875000000000000E-002   2.9854791371153282        2.9854791371153282        1.0000000000000000        0.0000000000000000     
  0.14062500000000000        7.8125000000000000E-002   2.9767584429829235        2.9767584429829235        1.0000000000000000        0.0000000000000000     
  0.14062500000000000       0.10937500000000000        2.9693689548363840        2.9693689548363840        1.0000000000000000        0.0000000000000000     
  0.14062500000000000       0.14062500000000000        2.9636392158912410        2.9636392158912410        1.0000000000000000        0.0000000000000000     
  0.14062500000000000       0.17187500000000000        2.9597219085831363        2.9597219085831363        1.0000000000000000        0.0000000000000000     
  0.14062500000000000       0.20312500000000000        2.9575783765856767        2.9575783765856767        1.0000000000000000        0.0000000000000000     
  0.14062500000000000       0.23437500000000000        2.9569826802002392        2.9569826802002392        1.0000000000000000        0.0000000000000000     
  0.14062500000000000       0.26562500000000000        2.9575448354104927        2.9575448354104927        1.0000000000000000        0.0000000000000000     
  0.14062500000000000       0.29687500000000000        2.9585100639459800        2.9119568458977061       0.60000000000000031       0.39999999999999963     
  0.14062500000000000       0.32812500000000000        2.7491482922804060        2.7491482922804060        0.0000000000000000        1.0000000000000000     
  0.14062500000000000       0.35937500000000000        2.5400837842212143        2.5400837842212143        0.0000000000000000        1.0000000000000000     
  0.14062500000000000       0.39062500000000000        2.3700634472112152        2.3700634472112152        0.0000000000000000        1.0000000000000000     
  0.14062500000000000       0.42187500000000000        2.2425971736722246        2.2425971736722246        0.0000000000000000        1.0000000000000000     
  0.14062500000000000       0.45312500000000000        2.1530938243977520        2.1530938243977520        0.0000000000000000        1.0000000000000000     
  0.14062500000000000       0.48437500000000000        2.0934988055420036        2.0934988055420036        0.0000000000000000        1.0000000000000000     
  0.14062500000000000       0.51562500000000000        2.0555113130522593        2.0555113130522593        0.0000000000000000        1.0000000000000000     
  0.14062500000000000       0.54687500000000000        2.0321596131515092        2.0321596131515092        0.0000000000000000        1.0000000000000000     
  0.14062500000000000       0.57812500000000000        2.0182367882036911        2.0182367882036911        0.0000000000000000        1.0000000000000000     