 VARIABLES="X","Y","U1","U2","F1","F2"
 zone i=          34  j=          34  f=point
 SOLUTIONTIME=  0.15000000000000002       STRANDID=          13
  -1.5625000000000000E-002  -1.5625000000000000E-002   2.0000000000000000        2.0000000000000000        1.0000000000000000        0.0000000000000000     
  -1.5625000000000000E-002   1.5625000000000000E-002   2.9978526789516833        2.9978526789516833        1.0000000000000000        0.0000000000000000     
  -1.5625000000000000E-002   4.6875000000000000E-002   2.9935587699142463        2.9935587699142463        1.0000000000000000        0.0000000000000000     
  -1.5625000000000000E-002   7.8125000000000000E-002   2.9892669831692871        2.9892669831692871        1.0000000000000000        0.0000000000000000     
  -1.5625000000000000E-002  0.10937500000000000        2.9849784793083849        2.9849784793083849        1.0000000000000000        0.0000000000000000     
  -1.5625000000000000E-002  0.14062500000000000        2.9806940730314153        2.9806940730314153        1.0000000000000000        0.0000000000000000     
  -1.5625000000000000E-002  0.17187500000000000        2.9764141467933780        2.9764141467933780        1.0000000000000000        0.0000000000000000     
  -1.5625000000000000E-002  0.20312500000000000        2.9721386056400827        2.9721386056400827        1.0000000000000000        0.0000000000000000     
  -1.5625000000000000E-002  0.23437500000000000        2.9678668873750920        2.9678668873750920        1.0000000000000000        0.0000000000000000     
  -1.5625000000000000E-002  0.26562500000000000        2.9635980267286319        2.9635980267286319        1.0000000000000000        0.0000000000000000     
  -1.5625000000000000E-002  0.29687500000000000        2.9601842112916641        2.9302631811757660       0.60000000000000031       0.39999999999999963     
  -1.5625000000000000E-002  0.32812500000000000        2.8303213813361578        2.8303213813361578        0.0000000000000000        1.0000000000000000     
  -1.5625000000000000E-002  0.35937500000000000        2.6923544726697926        2.6923544726697926        0.0000000000000000        1.0000000000000000     
  -1.5625000000000000E-002  0.39062500000000000        2.5639277176780624        2.5639277176780624        0.0000000000000000        1.0000000000000000     
  -1.5625000000000000E-002  0.42187500000000000        2.4486560938485336        2.4486560938485336        0.0000000000000000        1.0000000000000000     
  -1.5625000000000000E-002  0.45312500000000000        2.3487539477532411        2.3487539477532411        0.0000000000000000        1.0000000000000000     
  -1.5625000000000000E-002  0.48437500000000000        2.2650146932958259        2.2650146932958259        0.0000000000000000        1.0000000000000000     
  -1.5625000000000000E-002  0.51562500000000000        2.1970049715928446        2.1970049715928446        0.0000000000000000        1.0000000000000000     
  -1.5625000000000000E-002  0.54687500000000000        2.1433863216400417        2.1433863216400417        0.0000000000000000        1.0000000000000000     
  -1.5625000000000000E-002  0.57812500000000000        2.1022733944921854        2.1022733944921854        0.0000000000000000        1.0000000000000000     
  -1.5625000000000000E-002  0.60937500000000000        2.0715583248352911        2.0715583248352911        0.0000000000000000        1.0000000000000000     
  -1.5625000000000000E-002  0.64062500000000000        2.0491611631426290        2.0491611631426290        0.0000000000000000        1.0000000000000000     
  -1.5625000000000000E-002  0.67187500000000000        2.0331943499140430        2.0331943499140430        0.0000000000000000        1.0000000000000000     
  -1.5625000000000000E-002  0.70312500000000000        2.0220488826458114        2.0220488826458114        0.0000000000000000        1.0000000000000000     
  -1.5625000000000000E-002  0.73437500000000000        2.0144199551911162        2.0144199551911162        0.0000000000000000        1.0000000000000000     
  -1.5625000000000000E-002  0.76562500000000000        2.0092923150938287        2.0092923150938287        0.0000000000000000        1.0000000000000000     
  -1.5625000000000000E-002  0.79687500000000000        2.0059032865660602        2.0059032865660602        0.0000000000000000        1.0000000000000000     
  -1.5625000000000000E-002  0.82812500000000000        2.0036969881211859        2.0036969881211859        0.0000000000000000        1.0000000000000000     
  -1.5625000000000000E-002  0.85937500000000000        2.0022785771051397        2.0022785771051397        0.0000000000000000        1.0000000000000000     
  -1.5625000000000000E-002  0.89062500000000000        2.0013733759157084        2.0013733759157084        0.0000000000000000        1.0000000000000000     
  -1.5625000000000000E-002  0.92187500000000000        2.0007928266140285        2.0007928266140285        0.0000000000000000        1.0000000000000000     
  -1.5625000000000000E-002  0.95312500000000000        2.0004073418781267        2.0004073418781267        0.0000000000000000        1.0000000000000000     
  -1.5625000000000000E-002  0.98437500000000000        2.0001250538604127        2.0001250538604127        0.0000000000000000        1.0000000000000000     
  -1.5625000000000000E-002   1.0156250000000000        2.0000000000000000        2.0000000000000000        0.0000000000000000        1.0000000000000000     
   1.5625000000000000E-002  -1.5625000000000000E-002   3.0021473210483167        3.0021473210483167        1.0000000000000000        0.0000000000000000     
   1.5625000000000000E-002   1.5625000000000000E-002   2.9978526789516833        2.9978526789516833        1.0000000000000000        0.0000000000000000     
   1.5625000000000000E-002   4.6875000000000000E-002   2.9935587699142463        2.9935587699142463        1.0000000000000000        0.0000000000000000     
   1.5625000000000000E-002   7.8125000000000000E-002   2.9892669831692871        2.9892669831692871        1.0000000000000000        0.0000000000000000     
   1.5625000000000000E-002  0.10937500000000000        2.9849784793083849        2.9849784793083849        1.0000000000000000        0.0000000000000000     
   1.5625000000000000E-002  0.14062500000000000        2.9806940730314153        2.9806940730314153        1.0000000000000000        0.0000000000000000     
   1.5625000000000000E-002  0.17187500000000000        2.9764141467933780        2.9764141467933780        1.0000000000000000        0.0000000000000000     
   1.5625000000000000E-002  0.20312500000000000        2.9721386056400827        2.9721386056400827        1.0000000000000000        0.0000000000000000     
   1.5625000000000000E-002  0.23437500000000000        2.9678668873750920        2.9678668873750920        1.0000000000000000        0.0000000000000000     
   1.5625000000000000E-002  0.26562500000000000        2.9635980267286319        2.9635980267286319        1.0000000000000000        0.0000000000000000     
   1.5625000000000000E-002  0.29687500000000000        2.9601842112916641        2.9302631811757660       0.60000000000000031       0.39999999999999963     
   1.5625000000000000E-002  0.32812500000000000        2.8303213813361578        2.8303213813361578        0.0000000000000000        1.0000000000000000     
   1.5625000000000000E-002  0.35937500000000000        2.6923544726697926        2.6923544726697926        0.0000000000000000        1.0000000000000000     
   1.5625000000000000E-002  0.39062500000000000        2.5639277176780624        2.5639277176780624        0.0000000000000000        1.0000000000000000     
   1.5625000000000000E-002  0.42187500000000000        2.4486560938485336        2.4486560938485336        0.0000000000000000        1.0000000000000000     
   1.5625000000000000E-002  0.45312500000000000        2.3487539477532411        2.3487539477532411        0.0000000000000000        1.0000000000000000     
   1.5625000000000000E-002  0.48437500000000000        2.2650146932958259        2.2650146932958259        0.0000000000000000        1.0000000000000000     
   1.5625000000000000E-002  0.51562500000000000        2.1970049715928446        2.1970049715928446        0.0000000000000000        1.0000000000000000     
   1.5625000000000000E-002  0.54687500000000000        2.1433863216400417        2.1433863216400417        0.0000000000000000        1.0000000000000000     
   1.5625000000000000E-002  0.57812500000000000        2.1022733944921854        2.1022733944921854        0.0000000000000000        1.0000000000000000     
   1.5625000000000000E-002  0.60937500000000000        2.0715583248352911        2.0715583248352911        0.0000000000000000        1.0000000000000000     
   1.5625000000000000E-002  0.64062500000000000        2.0491611631426290        2.0491611631426290        0.0000000000000000        1.0000000000000000     
   1.5625000000000000E-002  0.67187500000000000        2.0331943499140430        2.0331943499140430        0.0000000000000000        1.0000000000000000     
   1.5625000000000000E-002  0.70312500000000000        2.0220488826458114        2.0220488826458114        0.0000000000000000        1.0000000000000000     
   1.5625000000000000E-002  0.73437500000000000        2.0144199551911162        2.0144199551911162        0.0000000000000000        1.0000000000000000     
   1.5625000000000000E-002  0.76562500000000000        2.0092923150938287        2.0092923150938287        0.0000000000000000        1.0000000000000000     
   1.5625000000000000E-002  0.79687500000000000        2.0059032865660602        2.0059032865660602        0.0000000000000000        1.0000000000000000     
   1.5625000000000000E-002  0.82812500000000000        2.0036969881211859        2.0036969881211859        0.0000000000000000        1.0000000000000000     
   1.5625000000000000E-002  0.85937500000000000        2.0022785771051397        2.0022785771051397        0.0000000000000000        1.0000000000000000     
   1.5625000000000000E-002  0.89062500000000000        2.0013733759157084        2.0013733759157084        0.0000000000000000        1.0000000000000000     
   1.5625000000000000E-002  0.92187500000000000        2.0007928266140285        2.0007928266140285        0.0000000000000000        1.0000000000000000     
   1.5625000000000000E-002  0.95312500000000000        2.0004073418781267        2.0004073418781267        0.0000000000000000        1.0000000000000000     
   1.5625000000000000E-002  0.98437500000000000        2.0001250538604127        2.0001250538604127        0.0000000000000000        1.0000000000000000     
   1.5625000000000000E-002   1.0156250000000000        1.9998749461395873        1.9998749461395873        0.0000000000000000        1.0000000000000000     
   4.6875000000000000E-002  -1.5625000000000000E-002   3.0021473210483167        3.0021473210483167        1.0000000000000000        0.0000000000000000     
   4.6875000000000000E-002   1.5625000000000000E-002   2.9978526789516833        2.9978526789516833        1.0000000000000000        0.0000000000000000     
   4.6875000000000000E-002   4.6875000000000000E-002   2.9935587699142463        2.9935587699142463        1.0000000000000000        0.0000000000000000     
   4.6875000000000000E-002   7.8125000000000000E-002   2.9892669831692871        2.9892669831692871        1.0000000000000000        0.0000000000000000     
   4.6875000000000000E-002  0.10937500000000000        2.9849784793083849        2.9849784793083849        1.0000000000000000        0.0000000000000000     
   4.6875000000000000E-002  0.14062500000000000        2.9806940730314153        2.9806940730314153        1.0000000000000000        0.0000000000000000     
   4.6875000000000000E-002  0.17187500000000000        2.9764141467933780        2.9764141467933780        1.0000000000000000        0.0000000000000000     
   4.6875000000000000E-002  0.20312500000000000        2.9721386056400827        2.9721386056400827        1.0000000000000000        0.0000000000000000     
   4.6875000000000000E-002  0.23437500000000000        2.9678668873750920        2.9678668873750920        1.0000000000000000        0.0000000000000000     
   4.6875000000000000E-002  0.26562500000000000        2.9635980267286319        2.9635980267286319        1.0000000000000000        0.0000000000000000     
   4.6875000000000000E-002  0.29687500000000000        2.9601842112916641        2.9302631811757669       0.60000000000000031       0.39999999999999963     
   4.6875000000000000E-002  0.32812500000000000        2.8303213813361578        2.8303213813361578        0.0000000000000000        1.0000000000000000     
   4.6875000000000000E-002  0.35937500000000000        2.6923544726697926        2.6923544726697926        0.0000000000000000        1.0000000000000000     
   4.6875000000000000E-002  0.39062500000000000        2.5639277176780624        2.5639277176780624        0.0000000000000000        1.0000000000000000     
   4.6875000000000000E-002  0.42187500000000000        2.4486560938485336        2.4486560938485336        0.0000000000000000        1.0000000000000000     
   4.6875000000000000E-002  0.45312500000000000        2.3487539477532411        2.3487539477532411        0.0000000000000000        1.0000000000000000     
   4.6875000000000000E-002  0.48437500000000000        2.2650146932958259        2.2650146932958259        0.0000000000000000        1.0000000000000000     
   4.6875000000000000E-002  0.51562500000000000        2.1970049715928446        2.1970049715928446        0.0000000000000000        1.0000000000000000     
   4.6875000000000000E-002  0.54687500000000000        2.1433863216400417        2.1433863216400417        0.0000000000000000        1.0000000000000000     
   4.6875000000000000E-002  0.57812500000000000        2.1022733944921854        2.1022733944921854        0.0000000000000000        1.0000000000000000     
   4.6875000000000000E-002  0.60937500000000000        2.0715583248352911        2.0715583248352911        0.0000000000000000        1.0000000000000000     
   4.6875000000000000E-002  0.64062500000000000        2.0491611631426290        2.0491611631426290        0.0000000000000000        1.0000000000000000     
   4.6875000000000000E-002  0.67187500000000000        2.0331943499140430        2.0331943499140430        0.0000000000000000        1.0000000000000000     
   4.6875000000000000E-002  0.70312500000000000        2.0220488826458114        2.0220488826458114        0.0000000000000000        1.0000000000000000     
   4.6875000000000000E-002  0.73437500000000000        2.0144199551911162        2.0144199551911162        0.0000000000000000        1.0000000000000000     
   4.6875000000000000E-002  0.76562500000000000        2.0092923150938287        2.0092923150938287        0.0000000000000000        1.0000000000000000     
   4.6875000000000000E-002  0.79687500000000000        2.0059032865660607        2.0059032865660607        0.0000000000000000        1.0000000000000000     
   4.6875000000000000E-002  0.82812500000000000        2.0036969881211859        2.0036969881211859        0.0000000000000000        1.0000000000000000     
   4.6875000000000000E-002  0.85937500000000000        2.0022785771051397        2.0022785771051397        0.0000000000000000        1.0000000000000000     
   4.6875000000000000E-002  0.89062500000000000        2.0013733759157084        2.0013733759157084        0.0000000000000000        1.0000000000000000     
   4.6875000000000000E-002  0.92187500000000000        2.0007928266140285        2.0007928266140285        0.0000000000000000        1.0000000000000000     
   4.6875000000000000E-002  0.95312500000000000        2.0004073418781267        2.0004073418781267        0.0000000000000000        1.0000000000000000     
   4.6875000000000000E-002  0.98437500000000000        2.0001250538604127        2.0001250538604127        0.0000000000000000        1.0000000000000000     
   4.6875000000000000E-002   1.0156250000000000        1.9998749461395873        1.9998749461395873        0.0000000000000000        1.0000000000000000     
   7.8125000000000000E-002  -1.5625000000000000E-002   3.0021473210483167        3.0021473210483167        1.0000000000000000        0.0000000000000000     
   7.8125000000000000E-002   1.5625000000000000E-002   2.9978526789516833        2.9978526789516833        1.0000000000000000        0.0000000000000000     
   7.8125000000000000E-002   4.6875000000000000E-002   2.9935587699142467        2.9935587699142467        1.0000000000000000        0.0000000000000000     
   7.8125000000000000E-002   7.8125000000000000E-002   2.9892669831692871        2.9892669831692871        1.0000000000000000        0.0000000000000000     
   7.8125000000000000E-002  0.10937500000000000        2.9849784793083849        2.9849784793083849        1.0000000000000000        0.0000000000000000     
   7.8125000000000000E-002  0.14062500000000000        2.9806940730314153        2.9806940730314153        1.0000000000000000        0.0000000000000000     
   7.8125000000000000E-002  0.17187500000000000        2.9764141467933780        2.9764141467933780        1.0000000000000000        0.0000000000000000     
   7.8125000000000000E-002  0.20312500000000000        2.9721386056400827        2.9721386056400827        1.0000000000000000        0.0000000000000000     
   7.8125000000000000E-002  0.23437500000000000        2.9678668873750920        2.9678668873750920        1.0000000000000000        0.0000000000000000     
   7.8125000000000000E-002  0.26562500000000000        2.9635980267286319        2.9635980267286319        1.0000000000000000        0.0000000000000000     
   7.8125000000000000E-002  0.29687500000000000        2.9601842112916641        2.9302631811757682       0.60000000000000031       0.39999999999999963     
   7.8125000000000000E-002  0.32812500000000000        2.8303213813361578        2.8303213813361578        0.0000000000000000        1.0000000000000000     
   7.8125000000000000E-002  0.35937500000000000        2.6923544726697926        2.6923544726697926        0.0000000000000000        1.0000000000000000     
   7.8125000000000000E-002  0.39062500000000000        2.5639277176780624        2.5639277176780624        0.0000000000000000        1.0000000000000000     
   7.8125000000000000E-002  0.42187500000000000        2.4486560938485336        2.4486560938485336        0.0000000000000000        1.0000000000000000     
   7.8125000000000000E-002  0.45312500000000000        2.3487539477532411        2.3487539477532411        0.0000000000000000        1.0000000000000000     
   7.8125000000000000E-002  0.48437500000000000        2.2650146932958259        2.2650146932958259        0.0000000000000000        1.0000000000000000     
   7.8125000000000000E-002  0.51562500000000000        2.1970049715928446        2.1970049715928446        0.0000000000000000        1.0000000000000000     
   7.8125000000000000E-002  0.54687500000000000        2.1433863216400422        2.1433863216400422        0.0000000000000000        1.0000000000000000     
   7.8125000000000000E-002  0.57812500000000000        2.1022733944921859        2.1022733944921859        0.0000000000000000        1.0000000000000000     
   7.8125000000000000E-002  0.60937500000000000        2.0715583248352911        2.0715583248352911        0.0000000000000000        1.0000000000000000     
   7.8125000000000000E-002  0.64062500000000000        2.0491611631426290        2.0491611631426290        0.0000000000000000        1.0000000000000000     
   7.8125000000000000E-002  0.67187500000000000        2.0331943499140430        2.0331943499140430        0.0000000000000000        1.0000000000000000     
   7.8125000000000000E-002  0.70312500000000000        2.0220488826458114        2.0220488826458114        0.0000000000000000        1.0000000000000000     
   7.8125000000000000E-002  0.73437500000000000        2.0144199551911162        2.0144199551911162        0.0000000000000000        1.0000000000000000     
   7.8125000000000000E-002  0.76562500000000000        2.0092923150938287        2.0092923150938287        0.0000000000000000        1.0000000000000000     
   7.8125000000000000E-002  0.79687500000000000        2.0059032865660607        2.0059032865660607        0.0000000000000000        1.0000000000000000     
   7.8125000000000000E-002  0.82812500000000000        2.0036969881211859        2.0036969881211859        0.0000000000000000        1.0000000000000000     
   7.8125000000000000E-002  0.85937500000000000        2.0022785771051401        2.0022785771051401        0.0000000000000000        1.0000000000000000     
   7.8125000000000000E-002  0.89062500000000000        2.0013733759157089        2.0013733759157089        0.0000000000000000        1.0000000000000000     
   7.8125000000000000E-002  0.92187500000000000        2.0007928266140285        2.0007928266140285        0.0000000000000000        1.0000000000000000     
   7.8125000000000000E-002  0.95312500000000000        2.0004073418781267        2.0004073418781267        0.0000000000000000        1.0000000000000000     
   7.8125000000000000E-002  0.98437500000000000        2.0001250538604127        2.0001250538604127        0.0000000000000000        1.0000000000000000     
   7.8125000000000000E-002   1.0156250000000000        1.9998749461395873        1.9998749461395873        0.0000000000000000        1.0000000000000000     
  0.10937500000000000       -1.5625000000000000E-002   3.0021473210483167        3.0021473210483167        1.0000000000000000        0.0000000000000000     
  0.10937500000000000        1.5625000000000000E-002   2.9978526789516833        2.9978526789516833        1.0000000000000000        0.0000000000000000     
  0.10937500000000000        4.6875000000000000E-002   2.9935587699142463        2.9935587699142463        1.0000000000000000        0.0000000000000000     
  0.10937500000000000        7.8125000000000000E-002   2.9892669831692871        2.9892669831692871        1.0000000000000000        0.0000000000000000     
  0.10937500000000000       0.10937500000000000        2.9849784793083849        2.9849784793083849        1.0000000000000000        0.0000000000000000     
  0.10937500000000000       0.14062500000000000        2.9806940730314153        2.9806940730314153        1.0000000000000000        0.0000000000000000     
  0.10937500000000000       0.17187500000000000        2.9764141467933780        2.9764141467933780        1.0000000000000000        0.0000000000000000     
  0.10937500000000000       0.20312500000000000        2.9721386056400827        2.9721386056400827        1.0000000000000000        0.0000000000000000     
  0.10937500000000000       0.23437500000000000        2.9678668873750920        2.9678668873750920        1.0000000000000000        0.0000000000000000     
  0.10937500000000000       0.26562500000000000        2.9635980267286319        2.9635980267286319        1.0000000000000000        0.0000000000000000     
  0.10937500000000000       0.29687500000000000        2.9601842112916636        2.9302631811757642       0.60000000000000031       0.39999999999999963     
  0.10937500000000000       0.32812500000000000        2.8303213813361578        2.8303213813361578        0.0000000000000000        1.0000000000000000     
  0.10937500000000000       0.35937500000000000        2.6923544726697926        2.6923544726697926        0.0000000000000000        1.0000000000000000     
  0.10937500000000000       0.39062500000000000        2.5639277176780624        2.5639277176780624        0.0000000000000000        1.0000000000000000     
  0.10937500000000000       0.42187500000000000        2.4486560938485336        2.4486560938485336        0.0000000000000000        1.0000000000000000     
  0.10937500000000000       0.45312500000000000        2.3487539477532411        2.3487539477532411        0.0000000000000000        1.0000000000000000     
  0.10937500000000000       0.48437500000000000        2.2650146932958259        2.2650146932958259        0.0000000000000000        1.0000000000000000     
  0.10937500000000000       0.51562500000000000        2.1970049715928446        2.1970049715928446        0.0000000000000000        1.0000000000000000     
  0.10937500000000000       0.54687500000000000        2.1433863216400422        2.1433863216400422        0.0000000000000000        1.0000000000000000     
  0.10937500000000000       0.57812500000000000        2.1022733944921859        2.1022733944921859        0.0000000000000000        1.0000000000000000     
  0.10937500000000000       0.60937500000000000        2.0715583248352911        2.0715583248352911        0.0000000000000000        1.0000000000000000     
  0.10937500000000000       0.64062500000000000        2.0491611631426290        2.0491611631426290        0.0000000000000000        1.0000000000000000     
  0.10937500000000000       0.67187500000000000        2.0331943499140435        2.0331943499140435        0.0000000000000000        1.0000000000000000     
  0.10937500000000000       0.70312500000000000        2.0220488826458114        2.0220488826458114        0.0000000000000000        1.0000000000000000     
  0.10937500000000000       0.73437500000000000        2.0144199551911162        2.0144199551911162        0.0000000000000000        1.0000000000000000     
  0.10937500000000000       0.76562500000000000        2.0092923150938287        2.0092923150938287        0.0000000000000000        1.0000000000000000     
  0.10937500000000000       0.79687500000000000        2.0059032865660602        2.0059032865660602        0.0000000000000000        1.0000000000000000     
  0.10937500000000000       0.82812500000000000        2.0036969881211859        2.0036969881211859        0.0000000000000000        1.0000000000000000     
  0.10937500000000000       0.85937500000000000        2.0022785771051401        2.0022785771051401        0.0000000000000000        1.0000000000000000     
  0.10937500000000000       0.89062500000000000        2.0013733759157089        2.0013733759157089        0.0000000000000000        1.0000000000000000     
  0.10937500000000000       0.92187500000000000        2.0007928266140285        2.0007928266140285        0.0000000000000000        1.0000000000000000     
  0.10937500000000000       0.95312500000000000        2.0004073418781267        2.0004073418781267        0.0000000000000000        1.0000000000000000     
  0.10937500000000000       0.98437500000000000        2.0001250538604127        2.0001250538604127        0.0000000000000000        1.0000000000000000     
  0.10937500000000000        1.0156250000000000        1.9998749461395873        1.9998749461395873        0.0000000000000000        1.0000000000000000     
  0.14062500000000000       -1.5625000000000000E-002   3.0021473210483167        3.0021473210483167        1.0000000000000000        0.0000000000000000     
  0.14062500000000000        1.5625000000000000E-002   2.9978526789516833        2.9978526789516833        1.0000000000000000        0.0000000000000000     
  0.14062500000000000        4.6875000000000000E-002   2.9935587699142467        2.9935587699142467        1.0000000000000000        0.0000000000000000     
  0.14062500000000000        7.8125000000000000E-002   2.9892669831692871        2.9892669831692871        1.0000000000000000        0.0000000000000000     
  0.14062500000000000       0.10937500000000000        2.9849784793083849        2.9849784793083849        1.0000000000000000        0.0000000000000000     
  0.14062500000000000       0.14062500000000000        2.9806940730314153        2.9806940730314153        1.0000000000000000        0.0000000000000000     
  0.14062500000000000       0.17187500000000000        2.9764141467933780        2.9764141467933780        1.0000000000000000        0.0000000000000000     
  0.14062500000000000       0.20312500000000000        2.9721386056400827        2.9721386056400827        1.0000000000000000        0.0000000000000000     
  0.14062500000000000       0.23437500000000000        2.9678668873750920        2.9678668873750920        1.0000000000000000        0.0000000000000000     
  0.14062500000000000       0.26562500000000000        2.9635980267286319        2.9635980267286319        1.0000000000000000        0.0000000000000000     
  0.14062500000000000       0.29687500000000000        2.9601842112916636        2.9302631811757638       0.60000000000000031       0.39999999999999963     
  0.14062500000000000       0.32812500000000000        2.8303213813361578        2.8303213813361578        0.0000000000000000        1.0000000000000000     
  0.14062500000000000       0.35937500000000000        2.6923544726697930        2.6923544726697930        0.0000000000000000        1.0000000000000000     
  0.14062500000000000       0.39062500000000000        2.5639277176780628        2.5639277176780628        0.0000000000000000        1.0000000000000000     
  0.14062500000000000       0.42187500000000000        2.4486560938485336        2.4486560938485336        0.0000000000000000        1.0000000000000000     
  0.14062500000000000       0.45312500000000000        2.3487539477532411        2.3487539477532411        0.0000000000000000        1.0000000000000000     
  0.14062500000000000       0.48437500000000000        2.2650146932958259        2.2650146932958259        0.0000000000000000        1.0000000000000000     
  0.14062500000000000       0.51562500000000000        2.1970049715928446        2.1970049715928446        0.0000000000000000        1.0000000000000000     
  0.14062500000000000       0.54687500000000000        2.1433863216400422        2.1433863216400422        0.0000000000000000        1.0000000000000000     
  0.14062500000000000       0.57812500000000000        2.1022733944921859        2.1022733944921859        0.0000000000000000        1.0000000000000000     