 VARIABLES="X","Y","U1","U2","F1","F2"
 zone i=          34  j=          34  f=point
 SOLUTIONTIME=   2.5000000000000001E-002  STRANDID=           3
  -1.5625000000000000E-002  -1.5625000000000000E-002   2.0000000000000000        2.0000000000000000        1.0000000000000000        0.0000000000000000     
  -1.5625000000000000E-002   1.5625000000000000E-002   2.9592999094657864        2.9592999094657864        1.0000000000000000        0.0000000000000000     
  -1.5625000000000000E-002   4.6875000000000000E-002   2.8841995444819695        2.8841995444819695        1.0000000000000000        0.0000000000000000     
  -1.5625000000000000E-002   7.8125000000000000E-002   2.8231278727858196        2.8231278727858196        1.0000000000000000        0.0000000000000000     
  -1.5625000000000000E-002  0.10937500000000000        2.7806090256465907        2.7806090256465907        1.0000000000000000        0.0000000000000000     
  -1.5625000000000000E-002  0.14062500000000000        2.7590420416963317        2.7590420416963317        1.0000000000000000        0.0000000000000000     
  -1.5625000000000000E-002  0.17187500000000000        2.7593352312283206        2.7593352312283206        1.0000000000000000        0.0000000000000000     
  -1.5625000000000000E-002  0.20312500000000000        2.7811797293795593        2.7811797293795593        1.0000000000000000        0.0000000000000000     
  -1.5625000000000000E-002  0.23437500000000000        2.8229994466068078        2.8229994466068078        1.0000000000000000        0.0000000000000000     
  -1.5625000000000000E-002  0.26562500000000000        2.8815714811043942        2.8815714811043942        1.0000000000000000        0.0000000000000000     
  -1.5625000000000000E-002  0.29687500000000000        2.9373281304052639        2.8727485818302880       0.60000000000000031       0.39999999999999963     
  -1.5625000000000000E-002  0.32812500000000000        2.5875629301604710        2.5875629301604710        0.0000000000000000        1.0000000000000000     
  -1.5625000000000000E-002  0.35937500000000000        2.3194715607863472        2.3194715607863472        0.0000000000000000        1.0000000000000000     
  -1.5625000000000000E-002  0.39062500000000000        2.1653204113692848        2.1653204113692848        0.0000000000000000        1.0000000000000000     
  -1.5625000000000000E-002  0.42187500000000000        2.0827746195845132        2.0827746195845132        0.0000000000000000        1.0000000000000000     
  -1.5625000000000000E-002  0.45312500000000000        2.0404791235734421        2.0404791235734421        0.0000000000000000        1.0000000000000000     
  -1.5625000000000000E-002  0.48437500000000000        2.0194483310028275        2.0194483310028275        0.0000000000000000        1.0000000000000000     
  -1.5625000000000000E-002  0.51562500000000000        2.0092162513774237        2.0092162513774237        0.0000000000000000        1.0000000000000000     
  -1.5625000000000000E-002  0.54687500000000000        2.0043195647374699        2.0043195647374699        0.0000000000000000        1.0000000000000000     
  -1.5625000000000000E-002  0.57812500000000000        2.0020063529282401        2.0020063529282401        0.0000000000000000        1.0000000000000000     
  -1.5625000000000000E-002  0.60937500000000000        2.0009249273290077        2.0009249273290077        0.0000000000000000        1.0000000000000000     
  -1.5625000000000000E-002  0.64062500000000000        2.0004236843885068        2.0004236843885068        0.0000000000000000        1.0000000000000000     
  -1.5625000000000000E-002  0.67187500000000000        2.0001930223101829        2.0001930223101829        0.0000000000000000        1.0000000000000000     
  -1.5625000000000000E-002  0.70312500000000000        2.0000875228741566        2.0000875228741566        0.0000000000000000        1.0000000000000000     
  -1.5625000000000000E-002  0.73437500000000000        2.0000395225130045        2.0000395225130045        0.0000000000000000        1.0000000000000000     
  -1.5625000000000000E-002  0.76562500000000000        2.0000177820784080        2.0000177820784080        0.0000000000000000        1.0000000000000000     
  -1.5625000000000000E-002  0.79687500000000000        2.0000079740821355        2.0000079740821355        0.0000000000000000        1.0000000000000000     
  -1.5625000000000000E-002  0.82812500000000000        2.0000035645973355        2.0000035645973355        0.0000000000000000        1.0000000000000000     
  -1.5625000000000000E-002  0.85937500000000000        2.0000015880497872        2.0000015880497872        0.0000000000000000        1.0000000000000000     
  -1.5625000000000000E-002  0.89062500000000000        2.0000007034572929        2.0000007034572929        0.0000000000000000        1.0000000000000000     
  -1.5625000000000000E-002  0.92187500000000000        2.0000003063790306        2.0000003063790306        0.0000000000000000        1.0000000000000000     
  -1.5625000000000000E-002  0.95312500000000000        2.0000001247801724        2.0000001247801724        0.0000000000000000        1.0000000000000000     
  -1.5625000000000000E-002  0.98437500000000000        2.0000000335487740        2.0000000335487740        0.0000000000000000        1.0000000000000000     
  -1.5625000000000000E-002   1.0156250000000000        2.0000000000000000        2.0000000000000000        0.0000000000000000        1.0000000000000000     
   1.5625000000000000E-002  -1.5625000000000000E-002   3.0407000905342136        3.0407000905342136        1.0000000000000000        0.0000000000000000     
   1.5625000000000000E-002   1.5625000000000000E-002   2.9592999094657864        2.9592999094657864        1.0000000000000000        0.0000000000000000     
   1.5625000000000000E-002   4.6875000000000000E-002   2.8841995444819695        2.8841995444819695        1.0000000000000000        0.0000000000000000     
   1.5625000000000000E-002   7.8125000000000000E-002   2.8231278727858196        2.8231278727858196        1.0000000000000000        0.0000000000000000     
   1.5625000000000000E-002  0.10937500000000000        2.7806090256465907        2.7806090256465907        1.0000000000000000        0.0000000000000000     
   1.5625000000000000E-002  0.14062500000000000        2.7590420416963317        2.7590420416963317        1.0000000000000000        0.0000000000000000     
   1.5625000000000000E-002  0.17187500000000000        2.7593352312283206        2.7593352312283206        1.0000000000000000        0.0000000000000000     
   1.5625000000000000E-002  0.20312500000000000        2.7811797293795593        2.7811797293795593        1.0000000000000000        0.0000000000000000     
   1.5625000000000000E-002  0.23437500000000000        2.8229994466068078        2.8229994466068078        1.0000000000000000        0.0000000000000000     
   1.5625000000000000E-002  0.26562500000000000        2.8815714811043942        2.8815714811043942        1.0000000000000000        0.0000000000000000     
   1.5625000000000000E-002  0.29687500000000000        2.9373281304052639        2.8727485818302880       0.60000000000000031       0.39999999999999963     
   1.5625000000000000E-002  0.32812500000000000        2.5875629301604710        2.5875629301604710        0.0000000000000000        1.0000000000000000     
   1.5625000000000000E-002  0.35937500000000000        2.3194715607863472        2.3194715607863472        0.0000000000000000        1.0000000000000000     
   1.5625000000000000E-002  0.39062500000000000        2.1653204113692848        2.1653204113692848        0.0000000000000000        1.0000000000000000     
   1.5625000000000000E-002  0.42187500000000000        2.0827746195845132        2.0827746195845132        0.0000000000000000        1.0000000000000000     
   1.5625000000000000E-002  0.45312500000000000        2.0404791235734421        2.0404791235734421        0.0000000000000000        1.0000000000000000     
   1.5625000000000000E-002  0.48437500000000000        2.0194483310028275        2.0194483310028275        0.0000000000000000        1.0000000000000000     
   1.5625000000000000E-002  0.51562500000000000        2.0092162513774237        2.0092162513774237        0.0000000000000000        1.0000000000000000     
   1.5625000000000000E-002  0.54687500000000000        2.0043195647374699        2.0043195647374699        0.0000000000000000        1.0000000000000000     
   1.5625000000000000E-002  0.57812500000000000        2.0020063529282401        2.0020063529282401        0.0000000000000000        1.0000000000000000     
   1.5625000000000000E-002  0.60937500000000000        2.0009249273290077        2.0009249273290077        0.0000000000000000        1.0000000000000000     
   1.5625000000000000E-002  0.64062500000000000        2.0004236843885068        2.0004236843885068        0.0000000000000000        1.0000000000000000     
   1.5625000000000000E-002  0.67187500000000000        2.0001930223101829        2.0001930223101829        0.0000000000000000        1.0000000000000000     
   1.5625000000000000E-002  0.70312500000000000        2.0000875228741566        2.0000875228741566        0.0000000000000000        1.0000000000000000     
   1.5625000000000000E-002  0.73437500000000000        2.0000395225130045        2.0000395225130045        0.0000000000000000        1.0000000000000000     
   1.5625000000000000E-002  0.76562500000000000        2.0000177820784080        2.0000177820784080        0.0000000000000000        1.0000000000000000     
   1.5625000000000000E-002  0.79687500000000000        2.0000079740821355        2.0000079740821355        0.0000000000000000        1.0000000000000000     
   1.5625000000000000E-002  0.82812500000000000        2.0000035645973355        2.0000035645973355        0.0000000000000000        1.0000000000000000     
   1.5625000000000000E-002  0.85937500000000000        2.0000015880497872        2.0000015880497872        0.0000000000000000        1.0000000000000000     
   1.5625000000000000E-002  0.89062500000000000        2.0000007034572929        2.0000007034572929        0.0000000000000000        1.0000000000000000     
   1.5625000000000000E-002  0.92187500000000000        2.0000003063790306        2.0000003063790306        0.0000000000000000        1.0000000000000000     
   1.5625000000000000E-002  0.95312500000000000        2.0000001247801724        2.0000001247801724        0.0000000000000000        1.0000000000000000     
   1.5625000000000000E-002  0.98437500000000000        2.0000000335487740        2.0000000335487740        0.0000000000000000        1.0000000000000000     
   1.5625000000000000E-002   1.0156250000000000        1.9999999664512260        1.9999999664512260        0.0000000000000000        1.0000000000000000     
   4.6875000000000000E-002  -1.5625000000000000E-002   3.0407000905342136        3.0407000905342136        1.0000000000000000        0.0000000000000000     
   4.6875000000000000E-002   1.5625000000000000E-002   2.9592999094657864        2.9592999094657864        1.0000000000000000        0.0000000000000000     
   4.6875000000000000E-002   4.6875000000000000E-002   2.8841995444819695        2.8841995444819695        1.0000000000000000        0.0000000000000000     
   4.6875000000000000E-002   7.8125000000000000E-002   2.8231278727858196        2.8231278727858196        1.0000000000000000        0.0000000000000000     
   4.6875000000000000E-002  0.10937500000000000        2.7806090256465907        2.7806090256465907        1.0000000000000000        0.0000000000000000     
   4.6875000000000000E-002  0.14062500000000000        2.7590420416963317        2.7590420416963317        1.0000000000000000        0.0000000000000000     
   4.6875000000000000E-002  0.17187500000000000        2.7593352312283206        2.7593352312283206        1.0000000000000000        0.0000000000000000     
   4.6875000000000000E-002  0.20312500000000000        2.7811797293795593        2.7811797293795593        1.0000000000000000        0.0000000000000000     
   4.6875000000000000E-002  0.23437500000000000        2.8229994466068082        2.8229994466068082        1.0000000000000000        0.0000000000000000     
   4.6875000000000000E-002  0.26562500000000000        2.8815714811043942        2.8815714811043942        1.0000000000000000        0.0000000000000000     
   4.6875000000000000E-002  0.29687500000000000        2.9373281304052643        2.8727485818302898       0.60000000000000031       0.39999999999999963     
   4.6875000000000000E-002  0.32812500000000000        2.5875629301604710        2.5875629301604710        0.0000000000000000        1.0000000000000000     
   4.6875000000000000E-002  0.35937500000000000        2.3194715607863472        2.3194715607863472        0.0000000000000000        1.0000000000000000     
   4.6875000000000000E-002  0.39062500000000000        2.1653204113692848        2.1653204113692848        0.0000000000000000        1.0000000000000000     
   4.6875000000000000E-002  0.42187500000000000        2.0827746195845132        2.0827746195845132        0.0000000000000000        1.0000000000000000     
   4.6875000000000000E-002  0.45312500000000000        2.0404791235734421        2.0404791235734421        0.0000000000000000        1.0000000000000000     
   4.6875000000000000E-002  0.48437500000000000        2.0194483310028275        2.0194483310028275        0.0000000000000000        1.0000000000000000     
   4.6875000000000000E-002  0.51562500000000000        2.0092162513774237        2.0092162513774237        0.0000000000000000        1.0000000000000000     
   4.6875000000000000E-002  0.54687500000000000        2.0043195647374699        2.0043195647374699        0.0000000000000000        1.0000000000000000     
   4.6875000000000000E-002  0.57812500000000000        2.0020063529282401        2.0020063529282401        0.0000000000000000        1.0000000000000000     
   4.6875000000000000E-002  0.60937500000000000        2.0009249273290077        2.0009249273290077        0.0000000000000000        1.0000000000000000     
   4.6875000000000000E-002  0.64062500000000000        2.0004236843885068        2.0004236843885068        0.0000000000000000        1.0000000000000000     
   4.6875000000000000E-002  0.67187500000000000        2.0001930223101829        2.0001930223101829        0.0000000000000000        1.0000000000000000     
   4.6875000000000000E-002  0.70312500000000000        2.0000875228741566        2.0000875228741566        0.0000000000000000        1.0000000000000000     
   4.6875000000000000E-002  0.73437500000000000        2.0000395225130045        2.0000395225130045        0.0000000000000000        1.0000000000000000     
   4.6875000000000000E-002  0.76562500000000000        2.0000177820784080        2.0000177820784080        0.0000000000000000        1.0000000000000000     
   4.6875000000000000E-002  0.79687500000000000        2.0000079740821355        2.0000079740821355        0.0000000000000000        1.0000000000000000     
   4.6875000000000000E-002  0.82812500000000000        2.0000035645973355        2.0000035645973355        0.0000000000000000        1.0000000000000000     
   4.6875000000000000E-002  0.85937500000000000        2.0000015880497872        2.0000015880497872        0.0000000000000000        1.0000000000000000     
   4.6875000000000000E-002  0.89062500000000000        2.0000007034572929        2.0000007034572929        0.0000000000000000        1.0000000000000000     
   4.6875000000000000E-002  0.92187500000000000        2.0000003063790306        2.0000003063790306        0.0000000000000000        1.0000000000000000     
   4.6875000000000000E-002  0.95312500000000000        2.0000001247801724        2.0000001247801724        0.0000000000000000        1.0000000000000000     
   4.6875000000000000E-002  0.98437500000000000        2.0000000335487740        2.0000000335487740        0.0000000000000000        1.0000000000000000     
   4.6875000000000000E-002   1.0156250000000000        1.9999999664512260        1.9999999664512260        0.0000000000000000        1.0000000000000000     
   7.8125000000000000E-002  -1.5625000000000000E-002   3.0407000905342136        3.0407000905342136        1.0000000000000000        0.0000000000000000     
   7.8125000000000000E-002   1.5625000000000000E-002   2.9592999094657864        2.9592999094657864        1.0000000000000000        0.0000000000000000     
   7.8125000000000000E-002   4.6875000000000000E-002   2.8841995444819695        2.8841995444819695        1.0000000000000000        0.0000000000000000     
   7.8125000000000000E-002   7.8125000000000000E-002   2.8231278727858196        2.8231278727858196        1.0000000000000000        0.0000000000000000     
   7.8125000000000000E-002  0.10937500000000000        2.7806090256465907        2.7806090256465907        1.0000000000000000        0.0000000000000000     
   7.8125000000000000E-002  0.14062500000000000        2.7590420416963317        2.7590420416963317        1.0000000000000000        0.0000000000000000     
   7.8125000000000000E-002  0.17187500000000000        2.7593352312283206        2.7593352312283206        1.0000000000000000        0.0000000000000000     
   7.8125000000000000E-002  0.20312500000000000        2.7811797293795588        2.7811797293795588        1.0000000000000000        0.0000000000000000     
   7.8125000000000000E-002  0.23437500000000000        2.8229994466068078        2.8229994466068078        1.0000000000000000        0.0000000000000000     
   7.8125000000000000E-002  0.26562500000000000        2.8815714811043938        2.8815714811043938        1.0000000000000000        0.0000000000000000     
   7.8125000000000000E-002  0.29687500000000000        2.9373281304052652        2.8727485818302942       0.60000000000000031       0.39999999999999963     
   7.8125000000000000E-002  0.32812500000000000        2.5875629301604710        2.5875629301604710        0.0000000000000000        1.0000000000000000     
   7.8125000000000000E-002  0.35937500000000000        2.3194715607863472        2.3194715607863472        0.0000000000000000        1.0000000000000000     
   7.8125000000000000E-002  0.39062500000000000        2.1653204113692848        2.1653204113692848        0.0000000000000000        1.0000000000000000     
   7.8125000000000000E-002  0.42187500000000000        2.0827746195845132        2.0827746195845132        0.0000000000000000        1.0000000000000000     
   7.8125000000000000E-002  0.45312500000000000        2.0404791235734421        2.0404791235734421        0.0000000000000000        1.0000000000000000     
   7.8125000000000000E-002  0.48437500000000000        2.0194483310028275        2.0194483310028275        0.0000000000000000        1.0000000000000000     
   7.8125000000000000E-002  0.51562500000000000        2.0092162513774237        2.0092162513774237        0.0000000000000000        1.0000000000000000     
   7.8125000000000000E-002  0.54687500000000000        2.0043195647374699        2.0043195647374699        0.0000000000000000        1.0000000000000000     
   7.8125000000000000E-002  0.57812500000000000        2.0020063529282401        2.0020063529282401        0.0000000000000000        1.0000000000000000     
   7.8125000000000000E-002  0.60937500000000000        2.0009249273290077        2.0009249273290077        0.0000000000000000        1.0000000000000000     
   7.8125000000000000E-002  0.64062500000000000        2.0004236843885068        2.0004236843885068        0.0000000000000000        1.0000000000000000     
   7.8125000000000000E-002  0.67187500000000000        2.0001930223101829        2.0001930223101829        0.0000000000000000        1.0000000000000000     
   7.8125000000000000E-002  0.70312500000000000        2.0000875228741566        2.0000875228741566        0.0000000000000000        1.0000000000000000     
   7.8125000000000000E-002  0.73437500000000000        2.0000395225130045        2.0000395225130045        0.0000000000000000        1.0000000000000000     
   7.8125000000000000E-002  0.76562500000000000        2.0000177820784080        2.0000177820784080        0.0000000000000000        1.0000000000000000     
   7.8125000000000000E-002  0.79687500000000000        2.0000079740821355        2.0000079740821355        0.0000000000000000        1.0000000000000000     
   7.8125000000000000E-002  0.82812500000000000        2.0000035645973355        2.0000035645973355        0.0000000000000000        1.0000000000000000     
   7.8125000000000000E-002  0.85937500000000000        2.0000015880497872        2.0000015880497872        0.0000000000000000        1.0000000000000000     
   7.8125000000000000E-002  0.89062500000000000        2.0000007034572929        2.0000007034572929        0.0000000000000000        1.0000000000000000     
   7.8125000000000000E-002  0.92187500000000000        2.0000003063790306        2.0000003063790306        0.0000000000000000        1.0000000000000000     
   7.8125000000000000E-002  0.95312500000000000        2.0000001247801724        2.0000001247801724        0.0000000000000000        1.0000000000000000     
   7.8125000000000000E-002  0.98437500000000000        2.0000000335487740        2.0000000335487740        0.0000000000000000        1.0000000000000000     
   7.8125000000000000E-002   1.0156250000000000        1.9999999664512260        1.9999999664512260        0.0000000000000000        1.0000000000000000     
  0.10937500000000000       -1.5625000000000000E-002   3.0407000905342136        3.0407000905342136        1.0000000000000000        0.0000000000000000     
  0.10937500000000000        1.5625000000000000E-002   2.9592999094657864        2.9592999094657864        1.0000000000000000        0.0000000000000000     
  0.10937500000000000        4.6875000000000000E-002   2.8841995444819695        2.8841995444819695        1.0000000000000000        0.0000000000000000     
  0.10937500000000000        7.8125000000000000E-002   2.8231278727858196        2.8231278727858196        1.0000000000000000        0.0000000000000000     
  0.10937500000000000       0.10937500000000000        2.7806090256465907        2.7806090256465907        1.0000000000000000        0.0000000000000000     
  0.10937500000000000       0.14062500000000000        2.7590420416963313        2.7590420416963313        1.0000000000000000        0.0000000000000000     
  0.10937500000000000       0.17187500000000000        2.7593352312283206        2.7593352312283206        1.0000000000000000        0.0000000000000000     
  0.10937500000000000       0.20312500000000000        2.7811797293795588        2.7811797293795588        1.0000000000000000        0.0000000000000000     
  0.10937500000000000       0.23437500000000000        2.8229994466068078        2.8229994466068078        1.0000000000000000        0.0000000000000000     
  0.10937500000000000       0.26562500000000000        2.8815714811043942        2.8815714811043942        1.0000000000000000        0.0000000000000000     
  0.10937500000000000       0.29687500000000000        2.9373281304052643        2.8727485818302814       0.60000000000000031       0.39999999999999963     
  0.10937500000000000       0.32812500000000000        2.5875629301604715        2.5875629301604715        0.0000000000000000        1.0000000000000000     
  0.10937500000000000       0.35937500000000000        2.3194715607863476        2.3194715607863476        0.0000000000000000        1.0000000000000000     
  0.10937500000000000       0.39062500000000000        2.1653204113692848        2.1653204113692848        0.0000000000000000        1.0000000000000000     
  0.10937500000000000       0.42187500000000000        2.0827746195845132        2.0827746195845132        0.0000000000000000        1.0000000000000000     
  0.10937500000000000       0.45312500000000000        2.0404791235734421        2.0404791235734421        0.0000000000000000        1.0000000000000000     
  0.10937500000000000       0.48437500000000000        2.0194483310028275        2.0194483310028275        0.0000000000000000        1.0000000000000000     
  0.10937500000000000       0.51562500000000000        2.0092162513774237        2.0092162513774237        0.0000000000000000        1.0000000000000000     
  0.10937500000000000       0.54687500000000000        2.0043195647374699        2.0043195647374699        0.0000000000000000        1.0000000000000000     
  0.10937500000000000       0.57812500000000000        2.0020063529282401        2.0020063529282401        0.0000000000000000        1.0000000000000000     
  0.10937500000000000       0.60937500000000000        2.0009249273290077        2.0009249273290077        0.0000000000000000        1.0000000000000000     
  0.10937500000000000       0.64062500000000000        2.0004236843885068        2.0004236843885068        0.0000000000000000        1.0000000000000000     
  0.10937500000000000       0.67187500000000000        2.0001930223101829        2.0001930223101829        0.0000000000000000        1.0000000000000000     
  0.10937500000000000       0.70312500000000000        2.0000875228741566        2.0000875228741566        0.0000000000000000        1.0000000000000000     
  0.10937500000000000       0.73437500000000000        2.0000395225130045        2.0000395225130045        0.0000000000000000        1.0000000000000000     
  0.10937500000000000       0.76562500000000000        2.0000177820784080        2.0000177820784080        0.0000000000000000        1.0000000000000000     
  0.10937500000000000       0.79687500000000000        2.0000079740821355        2.0000079740821355        0.0000000000000000        1.0000000000000000     
  0.10937500000000000       0.82812500000000000        2.0000035645973355        2.0000035645973355        0.0000000000000000        1.0000000000000000     
  0.10937500000000000       0.85937500000000000        2.0000015880497872        2.0000015880497872        0.0000000000000000        1.0000000000000000     
  0.10937500000000000       0.89062500000000000        2.0000007034572929        2.0000007034572929        0.0000000000000000        1.0000000000000000     
  0.10937500000000000       0.92187500000000000        2.0000003063790306        2.0000003063790306        0.0000000000000000        1.0000000000000000     
  0.10937500000000000       0.95312500000000000        2.0000001247801724        2.0000001247801724        0.0000000000000000        1.0000000000000000     
  0.10937500000000000       0.98437500000000000        2.0000000335487740        2.0000000335487740        0.0000000000000000        1.0000000000000000     
  0.10937500000000000        1.0156250000000000        1.9999999664512260        1.9999999664512260        0.0000000000000000        1.0000000000000000     
  0.14062500000000000       -1.5625000000000000E-002   3.0407000905342136        3.0407000905342136        1.0000000000000000        0.0000000000000000     
  0.14062500000000000        1.5625000000000000E-002   2.9592999094657864        2.9592999094657864        1.0000000000000000        0.0000000000000000     
  0.14062500000000000        4.6875000000000000E-002   2.8841995444819695        2.8841995444819695        1.0000000000000000        0.0000000000000000     
  0.14062500000000000        7.8125000000000000E-002   2.8231278727858196        2.8231278727858196        1.0000000000000000        0.0000000000000000     
  0.14062500000000000       0.10937500000000000        2.7806090256465907        2.7806090256465907        1.0000000000000000        0.0000000000000000     
  0.14062500000000000       0.14062500000000000        2.7590420416963313        2.7590420416963313        1.0000000000000000        0.0000000000000000     
  0.14062500000000000       0.17187500000000000        2.7593352312283201        2.7593352312283201        1.0000000000000000        0.0000000000000000     
  0.14062500000000000       0.20312500000000000        2.7811797293795588        2.7811797293795588        1.0000000000000000        0.0000000000000000     
  0.14062500000000000       0.23437500000000000        2.8229994466068078        2.8229994466068078        1.0000000000000000        0.0000000000000000     
  0.14062500000000000       0.26562500000000000        2.8815714811043938        2.8815714811043938        1.0000000000000000        0.0000000000000000     
  0.14062500000000000       0.29687500000000000        2.9373281304052643        2.8727485818302818       0.60000000000000031       0.39999999999999963     
  0.14062500000000000       0.32812500000000000        2.5875629301604719        2.5875629301604719        0.0000000000000000        1.0000000000000000     
  0.14062500000000000       0.35937500000000000        2.3194715607863476        2.3194715607863476        0.0000000000000000        1.0000000000000000     
  0.14062500000000000       0.39062500000000000        2.1653204113692848        2.1653204113692848        0.0000000000000000        1.0000000000000000     
  0.14062500000000000       0.42187500000000000        2.0827746195845132        2.0827746195845132        0.0000000000000000        1.0000000000000000     
  0.14062500000000000       0.45312500000000000        2.0404791235734421        2.0404791235734421        0.0000000000000000        1.0000000000000000     
  0.14062500000000000       0.48437500000000000        2.0194483310028275        2.0194483310028275        0.0000000000000000        1.0000000000000000     
  0.14062500000000000       0.51562500000000000        2.0092162513774237        2.0092162513774237        0.0000000000000000        1.0000000000000000     
  0.14062500000000000       0.54687500000000000        2.0043195647374699        2.0043195647374699        0.0000000000000000        1.0000000000000000     
  0.14062500000000000       0.57812500000000000        2.0020063529282401        2.0020063529282401        0.0000000000000000        1.0000000000000000     