 VARIABLES="X","Y","U1","U2","F1","F2"
 zone i=          34  j=          34  f=point
 SOLUTIONTIME=  0.22500000000000003       STRANDID=          19
  -1.5625000000000000E-002  -1.5625000000000000E-002   2.0000000000000000        2.0000000000000000        1.0000000000000000        0.0000000000000000     
  -1.5625000000000000E-002   1.5625000000000000E-002   2.9978595485978143        2.9978595485978143        1.0000000000000000        0.0000000000000000     
  -1.5625000000000000E-002   4.6875000000000000E-002   2.9935786502116049        2.9935786502116049        1.0000000000000000        0.0000000000000000     
  -1.5625000000000000E-002   7.8125000000000000E-002   2.9892977654727062        2.9892977654727062        1.0000000000000000        0.0000000000000000     
  -1.5625000000000000E-002  0.10937500000000000        2.9850168986425052        2.9850168986425052        1.0000000000000000        0.0000000000000000     
  -1.5625000000000000E-002  0.14062500000000000        2.9807360543881360        2.9807360543881360        1.0000000000000000        0.0000000000000000     
  -1.5625000000000000E-002  0.17187500000000000        2.9764552373478934        2.9764552373478934        1.0000000000000000        0.0000000000000000     
  -1.5625000000000000E-002  0.20312500000000000        2.9721744470587774        2.9721744470587774        1.0000000000000000        0.0000000000000000     
  -1.5625000000000000E-002  0.23437500000000000        2.9678936780956806        2.9678936780956806        1.0000000000000000        0.0000000000000000     
  -1.5625000000000000E-002  0.26562500000000000        2.9636129251625372        2.9636129251625372        1.0000000000000000        0.0000000000000000     
  -1.5625000000000000E-002  0.29687500000000000        2.9601883317125610        2.9358109830879409       0.60000000000000031       0.39999999999999963     
  -1.5625000000000000E-002  0.32812500000000000        2.8551390950086541        2.8551390950086541        0.0000000000000000        1.0000000000000000     
  -1.5625000000000000E-002  0.35937500000000000        2.7423576972251569        2.7423576972251569        0.0000000000000000        1.0000000000000000     
  -1.5625000000000000E-002  0.39062500000000000        2.6345877490195622        2.6345877490195622        0.0000000000000000        1.0000000000000000     
  -1.5625000000000000E-002  0.42187500000000000        2.5340076899533011        2.5340076899533011        0.0000000000000000        1.0000000000000000     
  -1.5625000000000000E-002  0.45312500000000000        2.4422932897189642        2.4422932897189642        0.0000000000000000        1.0000000000000000     
  -1.5625000000000000E-002  0.48437500000000000        2.3605454011954103        2.3605454011954103        0.0000000000000000        1.0000000000000000     
  -1.5625000000000000E-002  0.51562500000000000        2.2892816661707336        2.2892816661707336        0.0000000000000000        1.0000000000000000     
  -1.5625000000000000E-002  0.54687500000000000        2.2284844327193438        2.2284844327193438        0.0000000000000000        1.0000000000000000     
  -1.5625000000000000E-002  0.57812500000000000        2.1776900151416503        2.1776900151416503        0.0000000000000000        1.0000000000000000     
  -1.5625000000000000E-002  0.60937500000000000        2.1361012324356694        2.1361012324356694        0.0000000000000000        1.0000000000000000     
  -1.5625000000000000E-002  0.64062500000000000        2.1027057023060491        2.1027057023060491        0.0000000000000000        1.0000000000000000     
  -1.5625000000000000E-002  0.67187500000000000        2.0763856432512169        2.0763856432512169        0.0000000000000000        1.0000000000000000     
  -1.5625000000000000E-002  0.70312500000000000        2.0560096178813070        2.0560096178813070        0.0000000000000000        1.0000000000000000     
  -1.5625000000000000E-002  0.73437500000000000        2.0405014968675408        2.0405014968675408        0.0000000000000000        1.0000000000000000     
  -1.5625000000000000E-002  0.76562500000000000        2.0288860403788944        2.0288860403788944        0.0000000000000000        1.0000000000000000     
  -1.5625000000000000E-002  0.79687500000000000        2.0203134160049925        2.0203134160049925        0.0000000000000000        1.0000000000000000     
  -1.5625000000000000E-002  0.82812500000000000        2.0140666131351126        2.0140666131351126        0.0000000000000000        1.0000000000000000     
  -1.5625000000000000E-002  0.85937500000000000        2.0095562496204105        2.0095562496204105        0.0000000000000000        1.0000000000000000     
  -1.5625000000000000E-002  0.89062500000000000        2.0063070008242856        2.0063070008242856        0.0000000000000000        1.0000000000000000     
  -1.5625000000000000E-002  0.92187500000000000        2.0039391367595578        2.0039391367595578        0.0000000000000000        1.0000000000000000     
  -1.5625000000000000E-002  0.95312500000000000        2.0021477090437236        2.0021477090437236        0.0000000000000000        1.0000000000000000     
  -1.5625000000000000E-002  0.98437500000000000        2.0006809944522543        2.0006809944522543        0.0000000000000000        1.0000000000000000     
  -1.5625000000000000E-002   1.0156250000000000        2.0000000000000000        2.0000000000000000        0.0000000000000000        1.0000000000000000     
   1.5625000000000000E-002  -1.5625000000000000E-002   3.0021404514021857        3.0021404514021857        1.0000000000000000        0.0000000000000000     
   1.5625000000000000E-002   1.5625000000000000E-002   2.9978595485978143        2.9978595485978143        1.0000000000000000        0.0000000000000000     
   1.5625000000000000E-002   4.6875000000000000E-002   2.9935786502116049        2.9935786502116049        1.0000000000000000        0.0000000000000000     
   1.5625000000000000E-002   7.8125000000000000E-002   2.9892977654727062        2.9892977654727062        1.0000000000000000        0.0000000000000000     
   1.5625000000000000E-002  0.10937500000000000        2.9850168986425052        2.9850168986425052        1.0000000000000000        0.0000000000000000     
   1.5625000000000000E-002  0.14062500000000000        2.9807360543881360        2.9807360543881360        1.0000000000000000        0.0000000000000000     
   1.5625000000000000E-002  0.17187500000000000        2.9764552373478934        2.9764552373478934        1.0000000000000000        0.0000000000000000     
   1.5625000000000000E-002  0.20312500000000000        2.9721744470587774        2.9721744470587774        1.0000000000000000        0.0000000000000000     
   1.5625000000000000E-002  0.23437500000000000        2.9678936780956806        2.9678936780956806        1.0000000000000000        0.0000000000000000     
   1.5625000000000000E-002  0.26562500000000000        2.9636129251625372        2.9636129251625372        1.0000000000000000        0.0000000000000000     
   1.5625000000000000E-002  0.29687500000000000        2.9601883317125610        2.9358109830879409       0.60000000000000031       0.39999999999999963     
   1.5625000000000000E-002  0.32812500000000000        2.8551390950086541        2.8551390950086541        0.0000000000000000        1.0000000000000000     
   1.5625000000000000E-002  0.35937500000000000        2.7423576972251569        2.7423576972251569        0.0000000000000000        1.0000000000000000     
   1.5625000000000000E-002  0.39062500000000000        2.6345877490195622        2.6345877490195622        0.0000000000000000        1.0000000000000000     
   1.5625000000000000E-002  0.42187500000000000        2.5340076899533011        2.5340076899533011        0.0000000000000000        1.0000000000000000     
   1.5625000000000000E-002  0.45312500000000000        2.4422932897189642        2.4422932897189642        0.0000000000000000        1.0000000000000000     
   1.5625000000000000E-002  0.48437500000000000        2.3605454011954103        2.3605454011954103        0.0000000000000000        1.0000000000000000     
   1.5625000000000000E-002  0.51562500000000000        2.2892816661707336        2.2892816661707336        0.0000000000000000        1.0000000000000000     
   1.5625000000000000E-002  0.54687500000000000        2.2284844327193438        2.2284844327193438        0.0000000000000000        1.0000000000000000     
   1.5625000000000000E-002  0.57812500000000000        2.1776900151416503        2.1776900151416503        0.0000000000000000        1.0000000000000000     
   1.5625000000000000E-002  0.60937500000000000        2.1361012324356694        2.1361012324356694        0.0000000000000000        1.0000000000000000     
   1.5625000000000000E-002  0.64062500000000000        2.1027057023060491        2.1027057023060491        0.0000000000000000        1.0000000000000000     
   1.5625000000000000E-002  0.67187500000000000        2.0763856432512169        2.0763856432512169        0.0000000000000000        1.0000000000000000     
   1.5625000000000000E-002  0.70312500000000000        2.0560096178813070        2.0560096178813070        0.0000000000000000        1.0000000000000000     
   1.5625000000000000E-002  0.73437500000000000        2.0405014968675408        2.0405014968675408        0.0000000000000000        1.0000000000000000     
   1.5625000000000000E-002  0.76562500000000000        2.0288860403788944        2.0288860403788944        0.0000000000000000        1.0000000000000000     
   1.5625000000000000E-002  0.79687500000000000        2.0203134160049925        2.0203134160049925        0.0000000000000000        1.0000000000000000     
   1.5625000000000000E-002  0.82812500000000000        2.0140666131351126        2.0140666131351126        0.0000000000000000        1.0000000000000000     
   1.5625000000000000E-002  0.85937500000000000        2.0095562496204105        2.0095562496204105        0.0000000000000000        1.0000000000000000     
   1.5625000000000000E-002  0.89062500000000000        2.0063070008242856        2.0063070008242856        0.0000000000000000        1.0000000000000000     
   1.5625000000000000E-002  0.92187500000000000        2.0039391367595578        2.0039391367595578        0.0000000000000000        1.0000000000000000     
   1.5625000000000000E-002  0.95312500000000000        2.0021477090437236        2.0021477090437236        0.0000000000000000        1.0000000000000000     
   1.5625000000000000E-002  0.98437500000000000        2.0006809944522543        2.0006809944522543        0.0000000000000000        1.0000000000000000     
   1.5625000000000000E-002   1.0156250000000000        1.9993190055477457        1.9993190055477457        0.0000000000000000        1.0000000000000000     
   4.6875000000000000E-002  -1.5625000000000000E-002   3.0021404514021857        3.0021404514021857        1.0000000000000000        0.0000000000000000     
   4.6875000000000000E-002   1.5625000000000000E-002   2.9978595485978143        2.9978595485978143        1.0000000000000000        0.0000000000000000     
   4.6875000000000000E-002   4.6875000000000000E-002   2.9935786502116049        2.9935786502116049        1.0000000000000000        0.0000000000000000     
   4.6875000000000000E-002   7.8125000000000000E-002   2.9892977654727062        2.9892977654727062        1.0000000000000000        0.0000000000000000     
   4.6875000000000000E-002  0.10937500000000000        2.9850168986425052        2.9850168986425052        1.0000000000000000        0.0000000000000000     
   4.6875000000000000E-002  0.14062500000000000        2.9807360543881360        2.9807360543881360        1.0000000000000000        0.0000000000000000     
   4.6875000000000000E-002  0.17187500000000000        2.9764552373478934        2.9764552373478934        1.0000000000000000        0.0000000000000000     
   4.6875000000000000E-002  0.20312500000000000        2.9721744470587774        2.9721744470587774        1.0000000000000000        0.0000000000000000     
   4.6875000000000000E-002  0.23437500000000000        2.9678936780956806        2.9678936780956806        1.0000000000000000        0.0000000000000000     
   4.6875000000000000E-002  0.26562500000000000        2.9636129251625372        2.9636129251625372        1.0000000000000000        0.0000000000000000     
   4.6875000000000000E-002  0.29687500000000000        2.9601883317125610        2.9358109830879413       0.60000000000000031       0.39999999999999963     
   4.6875000000000000E-002  0.32812500000000000        2.8551390950086537        2.8551390950086537        0.0000000000000000        1.0000000000000000     
   4.6875000000000000E-002  0.35937500000000000        2.7423576972251569        2.7423576972251569        0.0000000000000000        1.0000000000000000     
   4.6875000000000000E-002  0.39062500000000000        2.6345877490195622        2.6345877490195622        0.0000000000000000        1.0000000000000000     
   4.6875000000000000E-002  0.42187500000000000        2.5340076899533011        2.5340076899533011        0.0000000000000000        1.0000000000000000     
   4.6875000000000000E-002  0.45312500000000000        2.4422932897189642        2.4422932897189642        0.0000000000000000        1.0000000000000000     
   4.6875000000000000E-002  0.48437500000000000        2.3605454011954103        2.3605454011954103        0.0000000000000000        1.0000000000000000     
   4.6875000000000000E-002  0.51562500000000000        2.2892816661707336        2.2892816661707336        0.0000000000000000        1.0000000000000000     
   4.6875000000000000E-002  0.54687500000000000        2.2284844327193438        2.2284844327193438        0.0000000000000000        1.0000000000000000     
   4.6875000000000000E-002  0.57812500000000000        2.1776900151416503        2.1776900151416503        0.0000000000000000        1.0000000000000000     
   4.6875000000000000E-002  0.60937500000000000        2.1361012324356694        2.1361012324356694        0.0000000000000000        1.0000000000000000     
   4.6875000000000000E-002  0.64062500000000000        2.1027057023060491        2.1027057023060491        0.0000000000000000        1.0000000000000000     
   4.6875000000000000E-002  0.67187500000000000        2.0763856432512169        2.0763856432512169        0.0000000000000000        1.0000000000000000     
   4.6875000000000000E-002  0.70312500000000000        2.0560096178813070        2.0560096178813070        0.0000000000000000        1.0000000000000000     
   4.6875000000000000E-002  0.73437500000000000        2.0405014968675408        2.0405014968675408        0.0000000000000000        1.0000000000000000     
   4.6875000000000000E-002  0.76562500000000000        2.0288860403788949        2.0288860403788949        0.0000000000000000        1.0000000000000000     
   4.6875000000000000E-002  0.79687500000000000        2.0203134160049925        2.0203134160049925        0.0000000000000000        1.0000000000000000     
   4.6875000000000000E-002  0.82812500000000000        2.0140666131351126        2.0140666131351126        0.0000000000000000        1.0000000000000000     
   4.6875000000000000E-002  0.85937500000000000        2.0095562496204105        2.0095562496204105        0.0000000000000000        1.0000000000000000     
   4.6875000000000000E-002  0.89062500000000000        2.0063070008242856        2.0063070008242856        0.0000000000000000        1.0000000000000000     
   4.6875000000000000E-002  0.92187500000000000        2.0039391367595578        2.0039391367595578        0.0000000000000000        1.0000000000000000     
   4.6875000000000000E-002  0.95312500000000000        2.0021477090437236        2.0021477090437236        0.0000000000000000        1.0000000000000000     
   4.6875000000000000E-002  0.98437500000000000        2.0006809944522543        2.0006809944522543        0.0000000000000000        1.0000000000000000     
   4.6875000000000000E-002   1.0156250000000000        1.9993190055477457        1.9993190055477457        0.0000000000000000        1.0000000000000000     
   7.8125000000000000E-002  -1.5625000000000000E-002   3.0021404514021857        3.0021404514021857        1.0000000000000000        0.0000000000000000     
   7.8125000000000000E-002   1.5625000000000000E-002   2.9978595485978143        2.9978595485978143        1.0000000000000000        0.0000000000000000     
   7.8125000000000000E-002   4.6875000000000000E-002   2.9935786502116049        2.9935786502116049        1.0000000000000000        0.0000000000000000     
   7.8125000000000000E-002   7.8125000000000000E-002   2.9892977654727062        2.9892977654727062        1.0000000000000000        0.0000000000000000     
   7.8125000000000000E-002  0.10937500000000000        2.9850168986425052        2.9850168986425052        1.0000000000000000        0.0000000000000000     
   7.8125000000000000E-002  0.14062500000000000        2.9807360543881360        2.9807360543881360        1.0000000000000000        0.0000000000000000     
   7.8125000000000000E-002  0.17187500000000000        2.9764552373478934        2.9764552373478934        1.0000000000000000        0.0000000000000000     
   7.8125000000000000E-002  0.20312500000000000        2.9721744470587774        2.9721744470587774        1.0000000000000000        0.0000000000000000     
   7.8125000000000000E-002  0.23437500000000000        2.9678936780956806        2.9678936780956806        1.0000000000000000        0.0000000000000000     
   7.8125000000000000E-002  0.26562500000000000        2.9636129251625367        2.9636129251625367        1.0000000000000000        0.0000000000000000     
   7.8125000000000000E-002  0.29687500000000000        2.9601883317125606        2.9358109830879418       0.60000000000000031       0.39999999999999963     
   7.8125000000000000E-002  0.32812500000000000        2.8551390950086537        2.8551390950086537        0.0000000000000000        1.0000000000000000     
   7.8125000000000000E-002  0.35937500000000000        2.7423576972251569        2.7423576972251569        0.0000000000000000        1.0000000000000000     
   7.8125000000000000E-002  0.39062500000000000        2.6345877490195622        2.6345877490195622        0.0000000000000000        1.0000000000000000     
   7.8125000000000000E-002  0.42187500000000000        2.5340076899533011        2.5340076899533011        0.0000000000000000        1.0000000000000000     
   7.8125000000000000E-002  0.45312500000000000        2.4422932897189642        2.4422932897189642        0.0000000000000000        1.0000000000000000     
   7.8125000000000000E-002  0.48437500000000000        2.3605454011954103        2.3605454011954103        0.0000000000000000        1.0000000000000000     
   7.8125000000000000E-002  0.51562500000000000        2.2892816661707336        2.2892816661707336        0.0000000000000000        1.0000000000000000     
   7.8125000000000000E-002  0.54687500000000000        2.2284844327193438        2.2284844327193438        0.0000000000000000        1.0000000000000000     
   7.8125000000000000E-002  0.57812500000000000        2.1776900151416503        2.1776900151416503        0.0000000000000000        1.0000000000000000     
   7.8125000000000000E-002  0.60937500000000000        2.1361012324356694        2.1361012324356694        0.0000000000000000        1.0000000000000000     
   7.8125000000000000E-002  0.64062500000000000        2.1027057023060491        2.1027057023060491        0.0000000000000000        1.0000000000000000     
   7.8125000000000000E-002  0.67187500000000000        2.0763856432512169        2.0763856432512169        0.0000000000000000        1.0000000000000000     
   7.8125000000000000E-002  0.70312500000000000        2.0560096178813070        2.0560096178813070        0.0000000000000000        1.0000000000000000     
   7.8125000000000000E-002  0.73437500000000000        2.0405014968675408        2.0405014968675408        0.0000000000000000        1.0000000000000000     
   7.8125000000000000E-002  0.76562500000000000        2.0288860403788949        2.0288860403788949        0.0000000000000000        1.0000000000000000     
   7.8125000000000000E-002  0.79687500000000000        2.0203134160049925        2.0203134160049925        0.0000000000000000        1.0000000000000000     
   7.8125000000000000E-002  0.82812500000000000        2.0140666131351126        2.0140666131351126        0.0000000000000000        1.0000000000000000     
   7.8125000000000000E-002  0.85937500000000000        2.0095562496204105        2.0095562496204105        0.0000000000000000        1.0000000000000000     
   7.8125000000000000E-002  0.89062500000000000        2.0063070008242856        2.0063070008242856        0.0000000000000000        1.0000000000000000     
   7.8125000000000000E-002  0.92187500000000000        2.0039391367595578        2.0039391367595578        0.0000000000000000        1.0000000000000000     
   7.8125000000000000E-002  0.95312500000000000        2.0021477090437236        2.0021477090437236        0.0000000000000000        1.0000000000000000     
   7.8125000000000000E-002  0.98437500000000000        2.0006809944522543        2.0006809944522543        0.0000000000000000        1.0000000000000000     
   7.8125000000000000E-002   1.0156250000000000        1.9993190055477457        1.9993190055477457        0.0000000000000000        1.0000000000000000     
  0.10937500000000000       -1.5625000000000000E-002   3.0021404514021857        3.0021404514021857        1.0000000000000000        0.0000000000000000     
  0.10937500000000000        1.5625000000000000E-002   2.9978595485978143        2.9978595485978143        1.0000000000000000        0.0000000000000000     
  0.10937500000000000        4.6875000000000000E-002   2.9935786502116049        2.9935786502116049        1.0000000000000000        0.0000000000000000     
  0.10937500000000000        7.8125000000000000E-002   2.9892977654727062        2.9892977654727062        1.0000000000000000        0.0000000000000000     
  0.10937500000000000       0.10937500000000000        2.9850168986425052        2.9850168986425052        1.0000000000000000        0.0000000000000000     
  0.10937500000000000       0.14062500000000000        2.9807360543881360        2.9807360543881360        1.0000000000000000        0.0000000000000000     
  0.10937500000000000       0.17187500000000000        2.9764552373478934        2.9764552373478934        1.0000000000000000        0.0000000000000000     
  0.10937500000000000       0.20312500000000000        2.9721744470587774        2.9721744470587774        1.0000000000000000        0.0000000000000000     
  0.10937500000000000       0.23437500000000000        2.9678936780956806        2.9678936780956806        1.0000000000000000        0.0000000000000000     
  0.10937500000000000       0.26562500000000000        2.9636129251625367        2.9636129251625367        1.0000000000000000        0.0000000000000000     
  0.10937500000000000       0.29687500000000000        2.9601883317125606        2.9358109830879386       0.60000000000000031       0.39999999999999963     
  0.10937500000000000       0.32812500000000000        2.8551390950086537        2.8551390950086537        0.0000000000000000        1.0000000000000000     
  0.10937500000000000       0.35937500000000000        2.7423576972251569        2.7423576972251569        0.0000000000000000        1.0000000000000000     
  0.10937500000000000       0.39062500000000000        2.6345877490195626        2.6345877490195626        0.0000000000000000        1.0000000000000000     
  0.10937500000000000       0.42187500000000000        2.5340076899533011        2.5340076899533011        0.0000000000000000        1.0000000000000000     
  0.10937500000000000       0.45312500000000000        2.4422932897189642        2.4422932897189642        0.0000000000000000        1.0000000000000000     
  0.10937500000000000       0.48437500000000000        2.3605454011954103        2.3605454011954103        0.0000000000000000        1.0000000000000000     
  0.10937500000000000       0.51562500000000000        2.2892816661707336        2.2892816661707336        0.0000000000000000        1.0000000000000000     
  0.10937500000000000       0.54687500000000000        2.2284844327193438        2.2284844327193438        0.0000000000000000        1.0000000000000000     
  0.10937500000000000       0.57812500000000000        2.1776900151416503        2.1776900151416503        0.0000000000000000        1.0000000000000000     
  0.10937500000000000       0.60937500000000000        2.1361012324356694        2.1361012324356694        0.0000000000000000        1.0000000000000000     
  0.10937500000000000       0.64062500000000000        2.1027057023060491        2.1027057023060491        0.0000000000000000        1.0000000000000000     
  0.10937500000000000       0.67187500000000000        2.0763856432512169        2.0763856432512169        0.0000000000000000        1.0000000000000000     
  0.10937500000000000       0.70312500000000000        2.0560096178813070        2.0560096178813070        0.0000000000000000        1.0000000000000000     
  0.10937500000000000       0.73437500000000000        2.0405014968675412        2.0405014968675412        0.0000000000000000        1.0000000000000000     
  0.10937500000000000       0.76562500000000000        2.0288860403788949        2.0288860403788949        0.0000000000000000        1.0000000000000000     
  0.10937500000000000       0.79687500000000000        2.0203134160049925        2.0203134160049925        0.0000000000000000        1.0000000000000000     
  0.10937500000000000       0.82812500000000000        2.0140666131351126        2.0140666131351126        0.0000000000000000        1.0000000000000000     
  0.10937500000000000       0.85937500000000000        2.0095562496204105        2.0095562496204105        0.0000000000000000        1.0000000000000000     
  0.10937500000000000       0.89062500000000000        2.0063070008242856        2.0063070008242856        0.0000000000000000        1.0000000000000000     
  0.10937500000000000       0.92187500000000000        2.0039391367595578        2.0039391367595578        0.0000000000000000        1.0000000000000000     
  0.10937500000000000       0.95312500000000000        2.0021477090437236        2.0021477090437236        0.0000000000000000        1.0000000000000000     
  0.10937500000000000       0.98437500000000000        2.0006809944522543        2.0006809944522543        0.0000000000000000        1.0000000000000000     
  0.10937500000000000        1.0156250000000000        1.9993190055477457        1.9993190055477457        0.0000000000000000        1.0000000000000000     
  0.14062500000000000       -1.5625000000000000E-002   3.0021404514021852        3.0021404514021852        1.0000000000000000        0.0000000000000000     
  0.14062500000000000        1.5625000000000000E-002   2.9978595485978148        2.9978595485978148        1.0000000000000000        0.0000000000000000     
  0.14062500000000000        4.6875000000000000E-002   2.9935786502116053        2.9935786502116053        1.0000000000000000        0.0000000000000000     
  0.14062500000000000        7.8125000000000000E-002   2.9892977654727062        2.9892977654727062        1.0000000000000000        0.0000000000000000     
  0.14062500000000000       0.10937500000000000        2.9850168986425052        2.9850168986425052        1.0000000000000000        0.0000000000000000     
  0.14062500000000000       0.14062500000000000        2.9807360543881360        2.9807360543881360        1.0000000000000000        0.0000000000000000     
  0.14062500000000000       0.17187500000000000        2.9764552373478934        2.9764552373478934        1.0000000000000000        0.0000000000000000     
  0.14062500000000000       0.20312500000000000        2.9721744470587774        2.9721744470587774        1.0000000000000000        0.0000000000000000     
  0.14062500000000000       0.23437500000000000        2.9678936780956806        2.9678936780956806        1.0000000000000000        0.0000000000000000     
  0.14062500000000000       0.26562500000000000        2.9636129251625367        2.9636129251625367        1.0000000000000000        0.0000000000000000     
  0.14062500000000000       0.29687500000000000        2.9601883317125606        2.9358109830879391       0.60000000000000031       0.39999999999999963     
  0.14062500000000000       0.32812500000000000        2.8551390950086541        2.8551390950086541        0.0000000000000000        1.0000000000000000     
  0.14062500000000000       0.35937500000000000        2.7423576972251573        2.7423576972251573        0.0000000000000000        1.0000000000000000     
  0.14062500000000000       0.39062500000000000        2.6345877490195626        2.6345877490195626        0.0000000000000000        1.0000000000000000     
  0.14062500000000000       0.42187500000000000        2.5340076899533015        2.5340076899533015        0.0000000000000000        1.0000000000000000     
  0.14062500000000000       0.45312500000000000        2.4422932897189646        2.4422932897189646        0.0000000000000000        1.0000000000000000     
  0.14062500000000000       0.48437500000000000        2.3605454011954103        2.3605454011954103        0.0000000000000000        1.0000000000000000     
  0.14062500000000000       0.51562500000000000        2.2892816661707336        2.2892816661707336        0.0000000000000000        1.0000000000000000     
  0.14062500000000000       0.54687500000000000        2.2284844327193438        2.2284844327193438        0.0000000000000000        1.0000000000000000     
  0.14062500000000000       0.57812500000000000        2.1776900151416503        2.1776900151416503        0.0000000000000000        1.0000000000000000     