 VARIABLES="X","Y","U1","U2","F1","F2"
 zone i=          34  j=          34  f=point
 SOLUTIONTIME=  0.12500000000000000       STRANDID=          11
  -1.5625000000000000E-002  -1.5625000000000000E-002   2.0000000000000000        2.0000000000000000        1.0000000000000000        0.0000000000000000     
  -1.5625000000000000E-002   1.5625000000000000E-002   2.9978211800808001        2.9978211800808001        1.0000000000000000        0.0000000000000000     
  -1.5625000000000000E-002   4.6875000000000000E-002   2.9934676142956085        2.9934676142956085        1.0000000000000000        0.0000000000000000     
  -1.5625000000000000E-002   7.8125000000000000E-002   2.9891258394107139        2.9891258394107139        1.0000000000000000        0.0000000000000000     
  -1.5625000000000000E-002  0.10937500000000000        2.9848023180924605        2.9848023180924605        1.0000000000000000        0.0000000000000000     
  -1.5625000000000000E-002  0.14062500000000000        2.9805015792059986        2.9805015792059986        1.0000000000000000        0.0000000000000000     
  -1.5625000000000000E-002  0.17187500000000000        2.9762257375210406        2.9762257375210406        1.0000000000000000        0.0000000000000000     
  -1.5625000000000000E-002  0.20312500000000000        2.9719742648170797        2.9719742648170797        1.0000000000000000        0.0000000000000000     
  -1.5625000000000000E-002  0.23437500000000000        2.9677440460189972        2.9677440460189972        1.0000000000000000        0.0000000000000000     
  -1.5625000000000000E-002  0.26562500000000000        2.9635297141515964        2.9635297141515964        1.0000000000000000        0.0000000000000000     
  -1.5625000000000000E-002  0.29687500000000000        2.9601653182589538        2.9272868064824982       0.60000000000000031       0.39999999999999963     
  -1.5625000000000000E-002  0.32812500000000000        2.8170384352444571        2.8170384352444571        0.0000000000000000        1.0000000000000000     
  -1.5625000000000000E-002  0.35937500000000000        2.6660998163938805        2.6660998163938805        0.0000000000000000        1.0000000000000000     
  -1.5625000000000000E-002  0.39062500000000000        2.5279557856332646        2.5279557856332646        0.0000000000000000        1.0000000000000000     
  -1.5625000000000000E-002  0.42187500000000000        2.4069821731654186        2.4069821731654186        0.0000000000000000        1.0000000000000000     
  -1.5625000000000000E-002  0.45312500000000000        2.3053670036848493        2.3053670036848493        0.0000000000000000        1.0000000000000000     
  -1.5625000000000000E-002  0.48437500000000000        2.2232641702970017        2.2232641702970017        0.0000000000000000        1.0000000000000000     
  -1.5625000000000000E-002  0.51562500000000000        2.1592678004693715        2.1592678004693715        0.0000000000000000        1.0000000000000000     
  -1.5625000000000000E-002  0.54687500000000000        2.1110070938206316        2.1110070938206316        0.0000000000000000        1.0000000000000000     
  -1.5625000000000000E-002  0.57812500000000000        2.0757006158720248        2.0757006158720248        0.0000000000000000        1.0000000000000000     
  -1.5625000000000000E-002  0.60937500000000000        2.0505796969054466        2.0505796969054466        0.0000000000000000        1.0000000000000000     
  -1.5625000000000000E-002  0.64062500000000000        2.0331558636947338        2.0331558636947338        0.0000000000000000        1.0000000000000000     
  -1.5625000000000000E-002  0.67187500000000000        2.0213501004869676        2.0213501004869676        0.0000000000000000        1.0000000000000000     
  -1.5625000000000000E-002  0.70312500000000000        2.0135209416141038        2.0135209416141038        0.0000000000000000        1.0000000000000000     
  -1.5625000000000000E-002  0.73437500000000000        2.0084304747905413        2.0084304747905413        0.0000000000000000        1.0000000000000000     
  -1.5625000000000000E-002  0.76562500000000000        2.0051802768106155        2.0051802768106155        0.0000000000000000        1.0000000000000000     
  -1.5625000000000000E-002  0.79687500000000000        2.0031393441166552        2.0031393441166552        0.0000000000000000        1.0000000000000000     
  -1.5625000000000000E-002  0.82812500000000000        2.0018768779882734        2.0018768779882734        0.0000000000000000        1.0000000000000000     
  -1.5625000000000000E-002  0.85937500000000000        2.0011058594001585        2.0011058594001585        0.0000000000000000        1.0000000000000000     
  -1.5625000000000000E-002  0.89062500000000000        2.0006388836912121        2.0006388836912121        0.0000000000000000        1.0000000000000000     
  -1.5625000000000000E-002  0.92187500000000000        2.0003552644010560        2.0003552644010560        0.0000000000000000        1.0000000000000000     
  -1.5625000000000000E-002  0.95312500000000000        2.0001773310238620        2.0001773310238620        0.0000000000000000        1.0000000000000000     
  -1.5625000000000000E-002  0.98437500000000000        2.0000535752600639        2.0000535752600639        0.0000000000000000        1.0000000000000000     
  -1.5625000000000000E-002   1.0156250000000000        2.0000000000000000        2.0000000000000000        0.0000000000000000        1.0000000000000000     
   1.5625000000000000E-002  -1.5625000000000000E-002   3.0021788199191999        3.0021788199191999        1.0000000000000000        0.0000000000000000     
   1.5625000000000000E-002   1.5625000000000000E-002   2.9978211800808001        2.9978211800808001        1.0000000000000000        0.0000000000000000     
   1.5625000000000000E-002   4.6875000000000000E-002   2.9934676142956085        2.9934676142956085        1.0000000000000000        0.0000000000000000     
   1.5625000000000000E-002   7.8125000000000000E-002   2.9891258394107139        2.9891258394107139        1.0000000000000000        0.0000000000000000     
   1.5625000000000000E-002  0.10937500000000000        2.9848023180924605        2.9848023180924605        1.0000000000000000        0.0000000000000000     
   1.5625000000000000E-002  0.14062500000000000        2.9805015792059986        2.9805015792059986        1.0000000000000000        0.0000000000000000     
   1.5625000000000000E-002  0.17187500000000000        2.9762257375210406        2.9762257375210406        1.0000000000000000        0.0000000000000000     
   1.5625000000000000E-002  0.20312500000000000        2.9719742648170797        2.9719742648170797        1.0000000000000000        0.0000000000000000     
   1.5625000000000000E-002  0.23437500000000000        2.9677440460189972        2.9677440460189972        1.0000000000000000        0.0000000000000000     
   1.5625000000000000E-002  0.26562500000000000        2.9635297141515964        2.9635297141515964        1.0000000000000000        0.0000000000000000     
   1.5625000000000000E-002  0.29687500000000000        2.9601653182589538        2.9272868064824982       0.60000000000000031       0.39999999999999963     
   1.5625000000000000E-002  0.32812500000000000        2.8170384352444571        2.8170384352444571        0.0000000000000000        1.0000000000000000     
   1.5625000000000000E-002  0.35937500000000000        2.6660998163938805        2.6660998163938805        0.0000000000000000        1.0000000000000000     
   1.5625000000000000E-002  0.39062500000000000        2.5279557856332646        2.5279557856332646        0.0000000000000000        1.0000000000000000     
   1.5625000000000000E-002  0.42187500000000000        2.4069821731654186        2.4069821731654186        0.0000000000000000        1.0000000000000000     
   1.5625000000000000E-002  0.45312500000000000        2.3053670036848493        2.3053670036848493        0.0000000000000000        1.0000000000000000     
   1.5625000000000000E-002  0.48437500000000000        2.2232641702970017        2.2232641702970017        0.0000000000000000        1.0000000000000000     
   1.5625000000000000E-002  0.51562500000000000        2.1592678004693715        2.1592678004693715        0.0000000000000000        1.0000000000000000     
   1.5625000000000000E-002  0.54687500000000000        2.1110070938206316        2.1110070938206316        0.0000000000000000        1.0000000000000000     
   1.5625000000000000E-002  0.57812500000000000        2.0757006158720248        2.0757006158720248        0.0000000000000000        1.0000000000000000     
   1.5625000000000000E-002  0.60937500000000000        2.0505796969054466        2.0505796969054466        0.0000000000000000        1.0000000000000000     
   1.5625000000000000E-002  0.64062500000000000        2.0331558636947338        2.0331558636947338        0.0000000000000000        1.0000000000000000     
   1.5625000000000000E-002  0.67187500000000000        2.0213501004869676        2.0213501004869676        0.0000000000000000        1.0000000000000000     
   1.5625000000000000E-002  0.70312500000000000        2.0135209416141038        2.0135209416141038        0.0000000000000000        1.0000000000000000     
   1.5625000000000000E-002  0.73437500000000000        2.0084304747905413        2.0084304747905413        0.0000000000000000        1.0000000000000000     
   1.5625000000000000E-002  0.76562500000000000        2.0051802768106155        2.0051802768106155        0.0000000000000000        1.0000000000000000     
   1.5625000000000000E-002  0.79687500000000000        2.0031393441166552        2.0031393441166552        0.0000000000000000        1.0000000000000000     
   1.5625000000000000E-002  0.82812500000000000        2.0018768779882734        2.0018768779882734        0.0000000000000000        1.0000000000000000     
   1.5625000000000000E-002  0.85937500000000000        2.0011058594001585        2.0011058594001585        0.0000000000000000        1.0000000000000000     
   1.5625000000000000E-002  0.89062500000000000        2.0006388836912121        2.0006388836912121        0.0000000000000000        1.0000000000000000     
   1.5625000000000000E-002  0.92187500000000000        2.0003552644010560        2.0003552644010560        0.0000000000000000        1.0000000000000000     
   1.5625000000000000E-002  0.95312500000000000        2.0001773310238620        2.0001773310238620        0.0000000000000000        1.0000000000000000     
   1.5625000000000000E-002  0.98437500000000000        2.0000535752600639        2.0000535752600639        0.0000000000000000        1.0000000000000000     
   1.5625000000000000E-002   1.0156250000000000        1.9999464247399361        1.9999464247399361        0.0000000000000000        1.0000000000000000     
   4.6875000000000000E-002  -1.5625000000000000E-002   3.0021788199191999        3.0021788199191999        1.0000000000000000        0.0000000000000000     
   4.6875000000000000E-002   1.5625000000000000E-002   2.9978211800808001        2.9978211800808001        1.0000000000000000        0.0000000000000000     
   4.6875000000000000E-002   4.6875000000000000E-002   2.9934676142956085        2.9934676142956085        1.0000000000000000        0.0000000000000000     
   4.6875000000000000E-002   7.8125000000000000E-002   2.9891258394107139        2.9891258394107139        1.0000000000000000        0.0000000000000000     
   4.6875000000000000E-002  0.10937500000000000        2.9848023180924605        2.9848023180924605        1.0000000000000000        0.0000000000000000     
   4.6875000000000000E-002  0.14062500000000000        2.9805015792059986        2.9805015792059986        1.0000000000000000        0.0000000000000000     
   4.6875000000000000E-002  0.17187500000000000        2.9762257375210406        2.9762257375210406        1.0000000000000000        0.0000000000000000     
   4.6875000000000000E-002  0.20312500000000000        2.9719742648170797        2.9719742648170797        1.0000000000000000        0.0000000000000000     
   4.6875000000000000E-002  0.23437500000000000        2.9677440460189972        2.9677440460189972        1.0000000000000000        0.0000000000000000     
   4.6875000000000000E-002  0.26562500000000000        2.9635297141515964        2.9635297141515964        1.0000000000000000        0.0000000000000000     
   4.6875000000000000E-002  0.29687500000000000        2.9601653182589533        2.9272868064824991       0.60000000000000031       0.39999999999999963     
   4.6875000000000000E-002  0.32812500000000000        2.8170384352444571        2.8170384352444571        0.0000000000000000        1.0000000000000000     
   4.6875000000000000E-002  0.35937500000000000        2.6660998163938805        2.6660998163938805        0.0000000000000000        1.0000000000000000     
   4.6875000000000000E-002  0.39062500000000000        2.5279557856332646        2.5279557856332646        0.0000000000000000        1.0000000000000000     
   4.6875000000000000E-002  0.42187500000000000        2.4069821731654186        2.4069821731654186        0.0000000000000000        1.0000000000000000     
   4.6875000000000000E-002  0.45312500000000000        2.3053670036848493        2.3053670036848493        0.0000000000000000        1.0000000000000000     
   4.6875000000000000E-002  0.48437500000000000        2.2232641702970017        2.2232641702970017        0.0000000000000000        1.0000000000000000     
   4.6875000000000000E-002  0.51562500000000000        2.1592678004693715        2.1592678004693715        0.0000000000000000        1.0000000000000000     
   4.6875000000000000E-002  0.54687500000000000        2.1110070938206316        2.1110070938206316        0.0000000000000000        1.0000000000000000     
   4.6875000000000000E-002  0.57812500000000000        2.0757006158720248        2.0757006158720248        0.0000000000000000        1.0000000000000000     
   4.6875000000000000E-002  0.60937500000000000        2.0505796969054466        2.0505796969054466        0.0000000000000000        1.0000000000000000     
   4.6875000000000000E-002  0.64062500000000000        2.0331558636947342        2.0331558636947342        0.0000000000000000        1.0000000000000000     
   4.6875000000000000E-002  0.67187500000000000        2.0213501004869676        2.0213501004869676        0.0000000000000000        1.0000000000000000     
   4.6875000000000000E-002  0.70312500000000000        2.0135209416141038        2.0135209416141038        0.0000000000000000        1.0000000000000000     
   4.6875000000000000E-002  0.73437500000000000        2.0084304747905413        2.0084304747905413        0.0000000000000000        1.0000000000000000     
   4.6875000000000000E-002  0.76562500000000000        2.0051802768106155        2.0051802768106155        0.0000000000000000        1.0000000000000000     
   4.6875000000000000E-002  0.79687500000000000        2.0031393441166552        2.0031393441166552        0.0000000000000000        1.0000000000000000     
   4.6875000000000000E-002  0.82812500000000000        2.0018768779882734        2.0018768779882734        0.0000000000000000        1.0000000000000000     
   4.6875000000000000E-002  0.85937500000000000        2.0011058594001585        2.0011058594001585        0.0000000000000000        1.0000000000000000     
   4.6875000000000000E-002  0.89062500000000000        2.0006388836912121        2.0006388836912121        0.0000000000000000        1.0000000000000000     
   4.6875000000000000E-002  0.92187500000000000        2.0003552644010560        2.0003552644010560        0.0000000000000000        1.0000000000000000     
   4.6875000000000000E-002  0.95312500000000000        2.0001773310238620        2.0001773310238620        0.0000000000000000        1.0000000000000000     
   4.6875000000000000E-002  0.98437500000000000        2.0000535752600639        2.0000535752600639        0.0000000000000000        1.0000000000000000     
   4.6875000000000000E-002   1.0156250000000000        1.9999464247399361        1.9999464247399361        0.0000000000000000        1.0000000000000000     
   7.8125000000000000E-002  -1.5625000000000000E-002   3.0021788199191999        3.0021788199191999        1.0000000000000000        0.0000000000000000     
   7.8125000000000000E-002   1.5625000000000000E-002   2.9978211800808001        2.9978211800808001        1.0000000000000000        0.0000000000000000     
   7.8125000000000000E-002   4.6875000000000000E-002   2.9934676142956085        2.9934676142956085        1.0000000000000000        0.0000000000000000     
   7.8125000000000000E-002   7.8125000000000000E-002   2.9891258394107139        2.9891258394107139        1.0000000000000000        0.0000000000000000     
   7.8125000000000000E-002  0.10937500000000000        2.9848023180924605        2.9848023180924605        1.0000000000000000        0.0000000000000000     
   7.8125000000000000E-002  0.14062500000000000        2.9805015792059986        2.9805015792059986        1.0000000000000000        0.0000000000000000     
   7.8125000000000000E-002  0.17187500000000000        2.9762257375210406        2.9762257375210406        1.0000000000000000        0.0000000000000000     
   7.8125000000000000E-002  0.20312500000000000        2.9719742648170797        2.9719742648170797        1.0000000000000000        0.0000000000000000     
   7.8125000000000000E-002  0.23437500000000000        2.9677440460189972        2.9677440460189972        1.0000000000000000        0.0000000000000000     
   7.8125000000000000E-002  0.26562500000000000        2.9635297141515964        2.9635297141515964        1.0000000000000000        0.0000000000000000     
   7.8125000000000000E-002  0.29687500000000000        2.9601653182589533        2.9272868064825004       0.60000000000000031       0.39999999999999963     
   7.8125000000000000E-002  0.32812500000000000        2.8170384352444571        2.8170384352444571        0.0000000000000000        1.0000000000000000     
   7.8125000000000000E-002  0.35937500000000000        2.6660998163938805        2.6660998163938805        0.0000000000000000        1.0000000000000000     
   7.8125000000000000E-002  0.39062500000000000        2.5279557856332646        2.5279557856332646        0.0000000000000000        1.0000000000000000     
   7.8125000000000000E-002  0.42187500000000000        2.4069821731654186        2.4069821731654186        0.0000000000000000        1.0000000000000000     
   7.8125000000000000E-002  0.45312500000000000        2.3053670036848493        2.3053670036848493        0.0000000000000000        1.0000000000000000     
   7.8125000000000000E-002  0.48437500000000000        2.2232641702970017        2.2232641702970017        0.0000000000000000        1.0000000000000000     
   7.8125000000000000E-002  0.51562500000000000        2.1592678004693715        2.1592678004693715        0.0000000000000000        1.0000000000000000     
   7.8125000000000000E-002  0.54687500000000000        2.1110070938206316        2.1110070938206316        0.0000000000000000        1.0000000000000000     
   7.8125000000000000E-002  0.57812500000000000        2.0757006158720248        2.0757006158720248        0.0000000000000000        1.0000000000000000     
   7.8125000000000000E-002  0.60937500000000000        2.0505796969054466        2.0505796969054466        0.0000000000000000        1.0000000000000000     
   7.8125000000000000E-002  0.64062500000000000        2.0331558636947342        2.0331558636947342        0.0000000000000000        1.0000000000000000     
   7.8125000000000000E-002  0.67187500000000000        2.0213501004869676        2.0213501004869676        0.0000000000000000        1.0000000000000000     
   7.8125000000000000E-002  0.70312500000000000        2.0135209416141038        2.0135209416141038        0.0000000000000000        1.0000000000000000     
   7.8125000000000000E-002  0.73437500000000000        2.0084304747905413        2.0084304747905413        0.0000000000000000        1.0000000000000000     
   7.8125000000000000E-002  0.76562500000000000        2.0051802768106155        2.0051802768106155        0.0000000000000000        1.0000000000000000     
   7.8125000000000000E-002  0.79687500000000000        2.0031393441166552        2.0031393441166552        0.0000000000000000        1.0000000000000000     
   7.8125000000000000E-002  0.82812500000000000        2.0018768779882734        2.0018768779882734        0.0000000000000000        1.0000000000000000     
   7.8125000000000000E-002  0.85937500000000000        2.0011058594001589        2.0011058594001589        0.0000000000000000        1.0000000000000000     
   7.8125000000000000E-002  0.89062500000000000        2.0006388836912121        2.0006388836912121        0.0000000000000000        1.0000000000000000     
   7.8125000000000000E-002  0.92187500000000000        2.0003552644010560        2.0003552644010560        0.0000000000000000        1.0000000000000000     
   7.8125000000000000E-002  0.95312500000000000        2.0001773310238620        2.0001773310238620        0.0000000000000000        1.0000000000000000     
   7.8125000000000000E-002  0.98437500000000000        2.0000535752600639        2.0000535752600639        0.0000000000000000        1.0000000000000000     
   7.8125000000000000E-002   1.0156250000000000        1.9999464247399361        1.9999464247399361        0.0000000000000000        1.0000000000000000     
  0.10937500000000000       -1.5625000000000000E-002   3.0021788199191999        3.0021788199191999        1.0000000000000000        0.0000000000000000     
  0.10937500000000000        1.5625000000000000E-002   2.9978211800808001        2.9978211800808001        1.0000000000000000        0.0000000000000000     
  0.10937500000000000        4.6875000000000000E-002   2.9934676142956085        2.9934676142956085        1.0000000000000000        0.0000000000000000     
  0.10937500000000000        7.8125000000000000E-002   2.9891258394107139        2.9891258394107139        1.0000000000000000        0.0000000000000000     
  0.10937500000000000       0.10937500000000000        2.9848023180924605        2.9848023180924605        1.0000000000000000        0.0000000000000000     
  0.10937500000000000       0.14062500000000000        2.9805015792059986        2.9805015792059986        1.0000000000000000        0.0000000000000000     
  0.10937500000000000       0.17187500000000000        2.9762257375210406        2.9762257375210406        1.0000000000000000        0.0000000000000000     
  0.10937500000000000       0.20312500000000000        2.9719742648170797        2.9719742648170797        1.0000000000000000        0.0000000000000000     
  0.10937500000000000       0.23437500000000000        2.9677440460189972        2.9677440460189972        1.0000000000000000        0.0000000000000000     
  0.10937500000000000       0.26562500000000000        2.9635297141515964        2.9635297141515964        1.0000000000000000        0.0000000000000000     
  0.10937500000000000       0.29687500000000000        2.9601653182589533        2.9272868064824960       0.60000000000000031       0.39999999999999963     
  0.10937500000000000       0.32812500000000000        2.8170384352444575        2.8170384352444575        0.0000000000000000        1.0000000000000000     
  0.10937500000000000       0.35937500000000000        2.6660998163938809        2.6660998163938809        0.0000000000000000        1.0000000000000000     
  0.10937500000000000       0.39062500000000000        2.5279557856332646        2.5279557856332646        0.0000000000000000        1.0000000000000000     
  0.10937500000000000       0.42187500000000000        2.4069821731654186        2.4069821731654186        0.0000000000000000        1.0000000000000000     
  0.10937500000000000       0.45312500000000000        2.3053670036848493        2.3053670036848493        0.0000000000000000        1.0000000000000000     
  0.10937500000000000       0.48437500000000000        2.2232641702970017        2.2232641702970017        0.0000000000000000        1.0000000000000000     
  0.10937500000000000       0.51562500000000000        2.1592678004693715        2.1592678004693715        0.0000000000000000        1.0000000000000000     
  0.10937500000000000       0.54687500000000000        2.1110070938206316        2.1110070938206316        0.0000000000000000        1.0000000000000000     
  0.10937500000000000       0.57812500000000000        2.0757006158720248        2.0757006158720248        0.0000000000000000        1.0000000000000000     
  0.10937500000000000       0.60937500000000000        2.0505796969054466        2.0505796969054466        0.0000000000000000        1.0000000000000000     
  0.10937500000000000       0.64062500000000000        2.0331558636947338        2.0331558636947338        0.0000000000000000        1.0000000000000000     
  0.10937500000000000       0.67187500000000000        2.0213501004869676        2.0213501004869676        0.0000000000000000        1.0000000000000000     
  0.10937500000000000       0.70312500000000000        2.0135209416141038        2.0135209416141038        0.0000000000000000        1.0000000000000000     
  0.10937500000000000       0.73437500000000000        2.0084304747905413        2.0084304747905413        0.0000000000000000        1.0000000000000000     
  0.10937500000000000       0.76562500000000000        2.0051802768106155        2.0051802768106155        0.0000000000000000        1.0000000000000000     
  0.10937500000000000       0.79687500000000000        2.0031393441166552        2.0031393441166552        0.0000000000000000        1.0000000000000000     
  0.10937500000000000       0.82812500000000000        2.0018768779882734        2.0018768779882734        0.0000000000000000        1.0000000000000000     
  0.10937500000000000       0.85937500000000000        2.0011058594001589        2.0011058594001589        0.0000000000000000        1.0000000000000000     
  0.10937500000000000       0.89062500000000000        2.0006388836912121        2.0006388836912121        0.0000000000000000        1.0000000000000000     
  0.10937500000000000       0.92187500000000000        2.0003552644010560        2.0003552644010560        0.0000000000000000        1.0000000000000000     
  0.10937500000000000       0.95312500000000000        2.0001773310238620        2.0001773310238620        0.0000000000000000        1.0000000000000000     
  0.10937500000000000       0.98437500000000000        2.0000535752600639        2.0000535752600639        0.0000000000000000        1.0000000000000000     
  0.10937500000000000        1.0156250000000000        1.9999464247399361        1.9999464247399361        0.0000000000000000        1.0000000000000000     
  0.14062500000000000       -1.5625000000000000E-002   3.0021788199191999        3.0021788199191999        1.0000000000000000        0.0000000000000000     
  0.14062500000000000        1.5625000000000000E-002   2.9978211800808001        2.9978211800808001        1.0000000000000000        0.0000000000000000     
  0.14062500000000000        4.6875000000000000E-002   2.9934676142956085        2.9934676142956085        1.0000000000000000        0.0000000000000000     
  0.14062500000000000        7.8125000000000000E-002   2.9891258394107139        2.9891258394107139        1.0000000000000000        0.0000000000000000     
  0.14062500000000000       0.10937500000000000        2.9848023180924605        2.9848023180924605        1.0000000000000000        0.0000000000000000     
  0.14062500000000000       0.14062500000000000        2.9805015792059986        2.9805015792059986        1.0000000000000000        0.0000000000000000     
  0.14062500000000000       0.17187500000000000        2.9762257375210406        2.9762257375210406        1.0000000000000000        0.0000000000000000     
  0.14062500000000000       0.20312500000000000        2.9719742648170797        2.9719742648170797        1.0000000000000000        0.0000000000000000     
  0.14062500000000000       0.23437500000000000        2.9677440460189972        2.9677440460189972        1.0000000000000000        0.0000000000000000     
  0.14062500000000000       0.26562500000000000        2.9635297141515964        2.9635297141515964        1.0000000000000000        0.0000000000000000     
  0.14062500000000000       0.29687500000000000        2.9601653182589533        2.9272868064824964       0.60000000000000031       0.39999999999999963     
  0.14062500000000000       0.32812500000000000        2.8170384352444575        2.8170384352444575        0.0000000000000000        1.0000000000000000     
  0.14062500000000000       0.35937500000000000        2.6660998163938809        2.6660998163938809        0.0000000000000000        1.0000000000000000     
  0.14062500000000000       0.39062500000000000        2.5279557856332651        2.5279557856332651        0.0000000000000000        1.0000000000000000     
  0.14062500000000000       0.42187500000000000        2.4069821731654191        2.4069821731654191        0.0000000000000000        1.0000000000000000     
  0.14062500000000000       0.45312500000000000        2.3053670036848497        2.3053670036848497        0.0000000000000000        1.0000000000000000     
  0.14062500000000000       0.48437500000000000        2.2232641702970017        2.2232641702970017        0.0000000000000000        1.0000000000000000     
  0.14062500000000000       0.51562500000000000        2.1592678004693715        2.1592678004693715        0.0000000000000000        1.0000000000000000     
  0.14062500000000000       0.54687500000000000        2.1110070938206316        2.1110070938206316        0.0000000000000000        1.0000000000000000     
  0.14062500000000000       0.57812500000000000        2.0757006158720248        2.0757006158720248        0.0000000000000000        1.0000000000000000     