 VARIABLES="X","Y","U1","U2","F1","F2"
 zone i=          34  j=          34  f=point
 SOLUTIONTIME=  0.18750000000000003       STRANDID=          16
  -1.5625000000000000E-002  -1.5625000000000000E-002   2.0000000000000000        2.0000000000000000        1.0000000000000000        0.0000000000000000     
  -1.5625000000000000E-002   1.5625000000000000E-002   2.9978590615623522        2.9978590615623522        1.0000000000000000        0.0000000000000000     
  -1.5625000000000000E-002   4.6875000000000000E-002   2.9935772407637691        2.9935772407637691        1.0000000000000000        0.0000000000000000     
  -1.5625000000000000E-002   7.8125000000000000E-002   2.9892955831124808        2.9892955831124808        1.0000000000000000        0.0000000000000000     
  -1.5625000000000000E-002  0.10937500000000000        2.9850141748454071        2.9850141748454071        1.0000000000000000        0.0000000000000000     
  -1.5625000000000000E-002  0.14062500000000000        2.9807330780578778        2.9807330780578778        1.0000000000000000        0.0000000000000000     
  -1.5625000000000000E-002  0.17187500000000000        2.9764523241771643        2.9764523241771643        1.0000000000000000        0.0000000000000000     
  -1.5625000000000000E-002  0.20312500000000000        2.9721719060384206        2.9721719060384206        1.0000000000000000        0.0000000000000000     
  -1.5625000000000000E-002  0.23437500000000000        2.9678917787371217        2.9678917787371217        1.0000000000000000        0.0000000000000000     
  -1.5625000000000000E-002  0.26562500000000000        2.9636118689197706        2.9636118689197706        1.0000000000000000        0.0000000000000000     
  -1.5625000000000000E-002  0.29687500000000000        2.9601880395905300        2.9334803861025813       0.60000000000000031       0.39999999999999963     
  -1.5625000000000000E-002  0.32812500000000000        2.8447049629143093        2.8447049629143093        0.0000000000000000        1.0000000000000000     
  -1.5625000000000000E-002  0.35937500000000000        2.7211998719793211        2.7211998719793211        0.0000000000000000        1.0000000000000000     
  -1.5625000000000000E-002  0.39062500000000000        2.6043787137052710        2.6043787137052710        0.0000000000000000        1.0000000000000000     
  -1.5625000000000000E-002  0.42187500000000000        2.4970036037869230        2.4970036037869230        0.0000000000000000        1.0000000000000000     
  -1.5625000000000000E-002  0.45312500000000000        2.4010374146268090        2.4010374146268090        0.0000000000000000        1.0000000000000000     
  -1.5625000000000000E-002  0.48437500000000000        2.3175684790833411        2.3175684790833411        0.0000000000000000        1.0000000000000000     
  -1.5625000000000000E-002  0.51562500000000000        2.2468491204559484        2.2468491204559484        0.0000000000000000        1.0000000000000000     
  -1.5625000000000000E-002  0.54687500000000000        2.1884223363812247        2.1884223363812247        0.0000000000000000        1.0000000000000000     
  -1.5625000000000000E-002  0.57812500000000000        2.1413004281270878        2.1413004281270878        0.0000000000000000        1.0000000000000000     
  -1.5625000000000000E-002  0.60937500000000000        2.1041589687131728        2.1041589687131728        0.0000000000000000        1.0000000000000000     
  -1.5625000000000000E-002  0.64062500000000000        2.0755165555344002        2.0755165555344002        0.0000000000000000        1.0000000000000000     
  -1.5625000000000000E-002  0.67187500000000000        2.0538814433504937        2.0538814433504937        0.0000000000000000        1.0000000000000000     
  -1.5625000000000000E-002  0.70312500000000000        2.0378569225871930        2.0378569225871930        0.0000000000000000        1.0000000000000000     
  -1.5625000000000000E-002  0.73437500000000000        2.0262059221339377        2.0262059221339377        0.0000000000000000        1.0000000000000000     
  -1.5625000000000000E-002  0.76562500000000000        2.0178808410749074        2.0178808410749074        0.0000000000000000        1.0000000000000000     
  -1.5625000000000000E-002  0.79687500000000000        2.0120271532911334        2.0120271532911334        0.0000000000000000        1.0000000000000000     
  -1.5625000000000000E-002  0.82812500000000000        2.0079695709925316        2.0079695709925316        0.0000000000000000        1.0000000000000000     
  -1.5625000000000000E-002  0.85937500000000000        2.0051883653953273        2.0051883653953273        0.0000000000000000        1.0000000000000000     
  -1.5625000000000000E-002  0.89062500000000000        2.0032916002477807        2.0032916002477807        0.0000000000000000        1.0000000000000000     
  -1.5625000000000000E-002  0.92187500000000000        2.0019870948267804        2.0019870948267804        0.0000000000000000        1.0000000000000000     
  -1.5625000000000000E-002  0.95312500000000000        2.0010562257383517        2.0010562257383517        0.0000000000000000        1.0000000000000000     
  -1.5625000000000000E-002  0.98437500000000000        2.0003303453201924        2.0003303453201924        0.0000000000000000        1.0000000000000000     
  -1.5625000000000000E-002   1.0156250000000000        2.0000000000000000        2.0000000000000000        0.0000000000000000        1.0000000000000000     
   1.5625000000000000E-002  -1.5625000000000000E-002   3.0021409384376478        3.0021409384376478        1.0000000000000000        0.0000000000000000     
   1.5625000000000000E-002   1.5625000000000000E-002   2.9978590615623522        2.9978590615623522        1.0000000000000000        0.0000000000000000     
   1.5625000000000000E-002   4.6875000000000000E-002   2.9935772407637691        2.9935772407637691        1.0000000000000000        0.0000000000000000     
   1.5625000000000000E-002   7.8125000000000000E-002   2.9892955831124808        2.9892955831124808        1.0000000000000000        0.0000000000000000     
   1.5625000000000000E-002  0.10937500000000000        2.9850141748454071        2.9850141748454071        1.0000000000000000        0.0000000000000000     
   1.5625000000000000E-002  0.14062500000000000        2.9807330780578778        2.9807330780578778        1.0000000000000000        0.0000000000000000     
   1.5625000000000000E-002  0.17187500000000000        2.9764523241771643        2.9764523241771643        1.0000000000000000        0.0000000000000000     
   1.5625000000000000E-002  0.20312500000000000        2.9721719060384206        2.9721719060384206        1.0000000000000000        0.0000000000000000     
   1.5625000000000000E-002  0.23437500000000000        2.9678917787371217        2.9678917787371217        1.0000000000000000        0.0000000000000000     
   1.5625000000000000E-002  0.26562500000000000        2.9636118689197706        2.9636118689197706        1.0000000000000000        0.0000000000000000     
   1.5625000000000000E-002  0.29687500000000000        2.9601880395905300        2.9334803861025813       0.60000000000000031       0.39999999999999963     
   1.5625000000000000E-002  0.32812500000000000        2.8447049629143093        2.8447049629143093        0.0000000000000000        1.0000000000000000     
   1.5625000000000000E-002  0.35937500000000000        2.7211998719793211        2.7211998719793211        0.0000000000000000        1.0000000000000000     
   1.5625000000000000E-002  0.39062500000000000        2.6043787137052710        2.6043787137052710        0.0000000000000000        1.0000000000000000     
   1.5625000000000000E-002  0.42187500000000000        2.4970036037869230        2.4970036037869230        0.0000000000000000        1.0000000000000000     
   1.5625000000000000E-002  0.45312500000000000        2.4010374146268090        2.4010374146268090        0.0000000000000000        1.0000000000000000     
   1.5625000000000000E-002  0.48437500000000000        2.3175684790833411        2.3175684790833411        0.0000000000000000        1.0000000000000000     
   1.5625000000000000E-002  0.51562500000000000        2.2468491204559484        2.2468491204559484        0.0000000000000000        1.0000000000000000     
   1.5625000000000000E-002  0.54687500000000000        2.1884223363812247        2.1884223363812247        0.0000000000000000        1.0000000000000000     
   1.5625000000000000E-002  0.57812500000000000        2.1413004281270878        2.1413004281270878        0.0000000000000000        1.0000000000000000     
   1.5625000000000000E-002  0.60937500000000000        2.1041589687131728        2.1041589687131728        0.0000000000000000        1.0000000000000000     
   1.5625000000000000E-002  0.64062500000000000        2.0755165555344002        2.0755165555344002        0.0000000000000000        1.0000000000000000     
   1.5625000000000000E-002  0.67187500000000000        2.0538814433504937        2.0538814433504937        0.0000000000000000        1.0000000000000000     
   1.5625000000000000E-002  0.70312500000000000        2.0378569225871930        2.0378569225871930        0.0000000000000000        1.0000000000000000     
   1.5625000000000000E-002  0.73437500000000000        2.0262059221339377        2.0262059221339377        0.0000000000000000        1.0000000000000000     
   1.5625000000000000E-002  0.76562500000000000        2.0178808410749074        2.0178808410749074        0.0000000000000000        1.0000000000000000     
   1.5625000000000000E-002  0.79687500000000000        2.0120271532911334        2.0120271532911334        0.0000000000000000        1.0000000000000000     
   1.5625000000000000E-002  0.82812500000000000        2.0079695709925316        2.0079695709925316        0.0000000000000000        1.0000000000000000     
   1.5625000000000000E-002  0.85937500000000000        2.0051883653953273        2.0051883653953273        0.0000000000000000        1.0000000000000000     
   1.5625000000000000E-002  0.89062500000000000        2.0032916002477807        2.0032916002477807        0.0000000000000000        1.0000000000000000     
   1.5625000000000000E-002  0.92187500000000000        2.0019870948267804        2.0019870948267804        0.0000000000000000        1.0000000000000000     
   1.5625000000000000E-002  0.95312500000000000        2.0010562257383517        2.0010562257383517        0.0000000000000000        1.0000000000000000     
   1.5625000000000000E-002  0.98437500000000000        2.0003303453201924        2.0003303453201924        0.0000000000000000        1.0000000000000000     
   1.5625000000000000E-002   1.0156250000000000        1.9996696546798076        1.9996696546798076        0.0000000000000000        1.0000000000000000     
   4.6875000000000000E-002  -1.5625000000000000E-002   3.0021409384376478        3.0021409384376478        1.0000000000000000        0.0000000000000000     
   4.6875000000000000E-002   1.5625000000000000E-002   2.9978590615623522        2.9978590615623522        1.0000000000000000        0.0000000000000000     
   4.6875000000000000E-002   4.6875000000000000E-002   2.9935772407637691        2.9935772407637691        1.0000000000000000        0.0000000000000000     
   4.6875000000000000E-002   7.8125000000000000E-002   2.9892955831124808        2.9892955831124808        1.0000000000000000        0.0000000000000000     
   4.6875000000000000E-002  0.10937500000000000        2.9850141748454071        2.9850141748454071        1.0000000000000000        0.0000000000000000     
   4.6875000000000000E-002  0.14062500000000000        2.9807330780578778        2.9807330780578778        1.0000000000000000        0.0000000000000000     
   4.6875000000000000E-002  0.17187500000000000        2.9764523241771643        2.9764523241771643        1.0000000000000000        0.0000000000000000     
   4.6875000000000000E-002  0.20312500000000000        2.9721719060384206        2.9721719060384206        1.0000000000000000        0.0000000000000000     
   4.6875000000000000E-002  0.23437500000000000        2.9678917787371217        2.9678917787371217        1.0000000000000000        0.0000000000000000     
   4.6875000000000000E-002  0.26562500000000000        2.9636118689197706        2.9636118689197706        1.0000000000000000        0.0000000000000000     
   4.6875000000000000E-002  0.29687500000000000        2.9601880395905300        2.9334803861025822       0.60000000000000031       0.39999999999999963     
   4.6875000000000000E-002  0.32812500000000000        2.8447049629143093        2.8447049629143093        0.0000000000000000        1.0000000000000000     
   4.6875000000000000E-002  0.35937500000000000        2.7211998719793211        2.7211998719793211        0.0000000000000000        1.0000000000000000     
   4.6875000000000000E-002  0.39062500000000000        2.6043787137052710        2.6043787137052710        0.0000000000000000        1.0000000000000000     
   4.6875000000000000E-002  0.42187500000000000        2.4970036037869230        2.4970036037869230        0.0000000000000000        1.0000000000000000     
   4.6875000000000000E-002  0.45312500000000000        2.4010374146268090        2.4010374146268090        0.0000000000000000        1.0000000000000000     
   4.6875000000000000E-002  0.48437500000000000        2.3175684790833411        2.3175684790833411        0.0000000000000000        1.0000000000000000     
   4.6875000000000000E-002  0.51562500000000000        2.2468491204559484        2.2468491204559484        0.0000000000000000        1.0000000000000000     
   4.6875000000000000E-002  0.54687500000000000        2.1884223363812247        2.1884223363812247        0.0000000000000000        1.0000000000000000     
   4.6875000000000000E-002  0.57812500000000000        2.1413004281270878        2.1413004281270878        0.0000000000000000        1.0000000000000000     
   4.6875000000000000E-002  0.60937500000000000        2.1041589687131728        2.1041589687131728        0.0000000000000000        1.0000000000000000     
   4.6875000000000000E-002  0.64062500000000000        2.0755165555344002        2.0755165555344002        0.0000000000000000        1.0000000000000000     
   4.6875000000000000E-002  0.67187500000000000        2.0538814433504937        2.0538814433504937        0.0000000000000000        1.0000000000000000     
   4.6875000000000000E-002  0.70312500000000000        2.0378569225871930        2.0378569225871930        0.0000000000000000        1.0000000000000000     
   4.6875000000000000E-002  0.73437500000000000        2.0262059221339377        2.0262059221339377        0.0000000000000000        1.0000000000000000     
   4.6875000000000000E-002  0.76562500000000000        2.0178808410749074        2.0178808410749074        0.0000000000000000        1.0000000000000000     
   4.6875000000000000E-002  0.79687500000000000        2.0120271532911334        2.0120271532911334        0.0000000000000000        1.0000000000000000     
   4.6875000000000000E-002  0.82812500000000000        2.0079695709925316        2.0079695709925316        0.0000000000000000        1.0000000000000000     
   4.6875000000000000E-002  0.85937500000000000        2.0051883653953273        2.0051883653953273        0.0000000000000000        1.0000000000000000     
   4.6875000000000000E-002  0.89062500000000000        2.0032916002477807        2.0032916002477807        0.0000000000000000        1.0000000000000000     
   4.6875000000000000E-002  0.92187500000000000        2.0019870948267804        2.0019870948267804        0.0000000000000000        1.0000000000000000     
   4.6875000000000000E-002  0.95312500000000000        2.0010562257383517        2.0010562257383517        0.0000000000000000        1.0000000000000000     
   4.6875000000000000E-002  0.98437500000000000        2.0003303453201924        2.0003303453201924        0.0000000000000000        1.0000000000000000     
   4.6875000000000000E-002   1.0156250000000000        1.9996696546798076        1.9996696546798076        0.0000000000000000        1.0000000000000000     
   7.8125000000000000E-002  -1.5625000000000000E-002   3.0021409384376478        3.0021409384376478        1.0000000000000000        0.0000000000000000     
   7.8125000000000000E-002   1.5625000000000000E-002   2.9978590615623522        2.9978590615623522        1.0000000000000000        0.0000000000000000     
   7.8125000000000000E-002   4.6875000000000000E-002   2.9935772407637691        2.9935772407637691        1.0000000000000000        0.0000000000000000     
   7.8125000000000000E-002   7.8125000000000000E-002   2.9892955831124808        2.9892955831124808        1.0000000000000000        0.0000000000000000     
   7.8125000000000000E-002  0.10937500000000000        2.9850141748454071        2.9850141748454071        1.0000000000000000        0.0000000000000000     
   7.8125000000000000E-002  0.14062500000000000        2.9807330780578778        2.9807330780578778        1.0000000000000000        0.0000000000000000     
   7.8125000000000000E-002  0.17187500000000000        2.9764523241771643        2.9764523241771643        1.0000000000000000        0.0000000000000000     
   7.8125000000000000E-002  0.20312500000000000        2.9721719060384206        2.9721719060384206        1.0000000000000000        0.0000000000000000     
   7.8125000000000000E-002  0.23437500000000000        2.9678917787371217        2.9678917787371217        1.0000000000000000        0.0000000000000000     
   7.8125000000000000E-002  0.26562500000000000        2.9636118689197701        2.9636118689197701        1.0000000000000000        0.0000000000000000     
   7.8125000000000000E-002  0.29687500000000000        2.9601880395905296        2.9334803861025831       0.60000000000000031       0.39999999999999963     
   7.8125000000000000E-002  0.32812500000000000        2.8447049629143093        2.8447049629143093        0.0000000000000000        1.0000000000000000     
   7.8125000000000000E-002  0.35937500000000000        2.7211998719793211        2.7211998719793211        0.0000000000000000        1.0000000000000000     
   7.8125000000000000E-002  0.39062500000000000        2.6043787137052710        2.6043787137052710        0.0000000000000000        1.0000000000000000     
   7.8125000000000000E-002  0.42187500000000000        2.4970036037869230        2.4970036037869230        0.0000000000000000        1.0000000000000000     
   7.8125000000000000E-002  0.45312500000000000        2.4010374146268090        2.4010374146268090        0.0000000000000000        1.0000000000000000     
   7.8125000000000000E-002  0.48437500000000000        2.3175684790833411        2.3175684790833411        0.0000000000000000        1.0000000000000000     
   7.8125000000000000E-002  0.51562500000000000        2.2468491204559484        2.2468491204559484        0.0000000000000000        1.0000000000000000     
   7.8125000000000000E-002  0.54687500000000000        2.1884223363812247        2.1884223363812247        0.0000000000000000        1.0000000000000000     
   7.8125000000000000E-002  0.57812500000000000        2.1413004281270878        2.1413004281270878        0.0000000000000000        1.0000000000000000     
   7.8125000000000000E-002  0.60937500000000000        2.1041589687131728        2.1041589687131728        0.0000000000000000        1.0000000000000000     
   7.8125000000000000E-002  0.64062500000000000        2.0755165555344002        2.0755165555344002        0.0000000000000000        1.0000000000000000     
   7.8125000000000000E-002  0.67187500000000000        2.0538814433504937        2.0538814433504937        0.0000000000000000        1.0000000000000000     
   7.8125000000000000E-002  0.70312500000000000        2.0378569225871930        2.0378569225871930        0.0000000000000000        1.0000000000000000     
   7.8125000000000000E-002  0.73437500000000000        2.0262059221339377        2.0262059221339377        0.0000000000000000        1.0000000000000000     
   7.8125000000000000E-002  0.76562500000000000        2.0178808410749074        2.0178808410749074        0.0000000000000000        1.0000000000000000     
   7.8125000000000000E-002  0.79687500000000000        2.0120271532911338        2.0120271532911338        0.0000000000000000        1.0000000000000000     
   7.8125000000000000E-002  0.82812500000000000        2.0079695709925316        2.0079695709925316        0.0000000000000000        1.0000000000000000     
   7.8125000000000000E-002  0.85937500000000000        2.0051883653953273        2.0051883653953273        0.0000000000000000        1.0000000000000000     
   7.8125000000000000E-002  0.89062500000000000        2.0032916002477807        2.0032916002477807        0.0000000000000000        1.0000000000000000     
   7.8125000000000000E-002  0.92187500000000000        2.0019870948267804        2.0019870948267804        0.0000000000000000        1.0000000000000000     
   7.8125000000000000E-002  0.95312500000000000        2.0010562257383517        2.0010562257383517        0.0000000000000000        1.0000000000000000     
   7.8125000000000000E-002  0.98437500000000000        2.0003303453201924        2.0003303453201924        0.0000000000000000        1.0000000000000000     
   7.8125000000000000E-002   1.0156250000000000        1.9996696546798076        1.9996696546798076        0.0000000000000000        1.0000000000000000     
  0.10937500000000000       -1.5625000000000000E-002   3.0021409384376478        3.0021409384376478        1.0000000000000000        0.0000000000000000     
  0.10937500000000000        1.5625000000000000E-002   2.9978590615623522        2.9978590615623522        1.0000000000000000        0.0000000000000000     
  0.10937500000000000        4.6875000000000000E-002   2.9935772407637691        2.9935772407637691        1.0000000000000000        0.0000000000000000     
  0.10937500000000000        7.8125000000000000E-002   2.9892955831124812        2.9892955831124812        1.0000000000000000        0.0000000000000000     
  0.10937500000000000       0.10937500000000000        2.9850141748454071        2.9850141748454071        1.0000000000000000        0.0000000000000000     
  0.10937500000000000       0.14062500000000000        2.9807330780578778        2.9807330780578778        1.0000000000000000        0.0000000000000000     
  0.10937500000000000       0.17187500000000000        2.9764523241771643        2.9764523241771643        1.0000000000000000        0.0000000000000000     
  0.10937500000000000       0.20312500000000000        2.9721719060384206        2.9721719060384206        1.0000000000000000        0.0000000000000000     
  0.10937500000000000       0.23437500000000000        2.9678917787371217        2.9678917787371217        1.0000000000000000        0.0000000000000000     
  0.10937500000000000       0.26562500000000000        2.9636118689197706        2.9636118689197706        1.0000000000000000        0.0000000000000000     
  0.10937500000000000       0.29687500000000000        2.9601880395905300        2.9334803861025796       0.60000000000000031       0.39999999999999963     
  0.10937500000000000       0.32812500000000000        2.8447049629143093        2.8447049629143093        0.0000000000000000        1.0000000000000000     
  0.10937500000000000       0.35937500000000000        2.7211998719793211        2.7211998719793211        0.0000000000000000        1.0000000000000000     
  0.10937500000000000       0.39062500000000000        2.6043787137052710        2.6043787137052710        0.0000000000000000        1.0000000000000000     
  0.10937500000000000       0.42187500000000000        2.4970036037869230        2.4970036037869230        0.0000000000000000        1.0000000000000000     
  0.10937500000000000       0.45312500000000000        2.4010374146268090        2.4010374146268090        0.0000000000000000        1.0000000000000000     
  0.10937500000000000       0.48437500000000000        2.3175684790833411        2.3175684790833411        0.0000000000000000        1.0000000000000000     
  0.10937500000000000       0.51562500000000000        2.2468491204559484        2.2468491204559484        0.0000000000000000        1.0000000000000000     
  0.10937500000000000       0.54687500000000000        2.1884223363812247        2.1884223363812247        0.0000000000000000        1.0000000000000000     
  0.10937500000000000       0.57812500000000000        2.1413004281270878        2.1413004281270878        0.0000000000000000        1.0000000000000000     
  0.10937500000000000       0.60937500000000000        2.1041589687131728        2.1041589687131728        0.0000000000000000        1.0000000000000000     
  0.10937500000000000       0.64062500000000000        2.0755165555344002        2.0755165555344002        0.0000000000000000        1.0000000000000000     
  0.10937500000000000       0.67187500000000000        2.0538814433504937        2.0538814433504937        0.0000000000000000        1.0000000000000000     
  0.10937500000000000       0.70312500000000000        2.0378569225871930        2.0378569225871930        0.0000000000000000        1.0000000000000000     
  0.10937500000000000       0.73437500000000000        2.0262059221339377        2.0262059221339377        0.0000000000000000        1.0000000000000000     
  0.10937500000000000       0.76562500000000000        2.0178808410749074        2.0178808410749074        0.0000000000000000        1.0000000000000000     
  0.10937500000000000       0.79687500000000000        2.0120271532911338        2.0120271532911338        0.0000000000000000        1.0000000000000000     
  0.10937500000000000       0.82812500000000000        2.0079695709925316        2.0079695709925316        0.0000000000000000        1.0000000000000000     
  0.10937500000000000       0.85937500000000000        2.0051883653953273        2.0051883653953273        0.0000000000000000        1.0000000000000000     
  0.10937500000000000       0.89062500000000000        2.0032916002477807        2.0032916002477807        0.0000000000000000        1.0000000000000000     
  0.10937500000000000       0.92187500000000000        2.0019870948267804        2.0019870948267804        0.0000000000000000        1.0000000000000000     
  0.10937500000000000       0.95312500000000000        2.0010562257383517        2.0010562257383517        0.0000000000000000        1.0000000000000000     
  0.10937500000000000       0.98437500000000000        2.0003303453201924        2.0003303453201924        0.0000000000000000        1.0000000000000000     
  0.10937500000000000        1.0156250000000000        1.9996696546798076        1.9996696546798076        0.0000000000000000        1.0000000000000000     
  0.14062500000000000       -1.5625000000000000E-002   3.0021409384376478        3.0021409384376478        1.0000000000000000        0.0000000000000000     
  0.14062500000000000        1.5625000000000000E-002   2.9978590615623522        2.9978590615623522        1.0000000000000000        0.0000000000000000     
  0.14062500000000000        4.6875000000000000E-002   2.9935772407637691        2.9935772407637691        1.0000000000000000        0.0000000000000000     
  0.14062500000000000        7.8125000000000000E-002   2.9892955831124808        2.9892955831124808        1.0000000000000000        0.0000000000000000     
  0.14062500000000000       0.10937500000000000        2.9850141748454071        2.9850141748454071        1.0000000000000000        0.0000000000000000     
  0.14062500000000000       0.14062500000000000        2.9807330780578778        2.9807330780578778        1.0000000000000000        0.0000000000000000     
  0.14062500000000000       0.17187500000000000        2.9764523241771643        2.9764523241771643        1.0000000000000000        0.0000000000000000     
  0.14062500000000000       0.20312500000000000        2.9721719060384206        2.9721719060384206        1.0000000000000000        0.0000000000000000     
  0.14062500000000000       0.23437500000000000        2.9678917787371217        2.9678917787371217        1.0000000000000000        0.0000000000000000     
  0.14062500000000000       0.26562500000000000        2.9636118689197706        2.9636118689197706        1.0000000000000000        0.0000000000000000     
  0.14062500000000000       0.29687500000000000        2.9601880395905300        2.9334803861025796       0.60000000000000031       0.39999999999999963     
  0.14062500000000000       0.32812500000000000        2.8447049629143093        2.8447049629143093        0.0000000000000000        1.0000000000000000     
  0.14062500000000000       0.35937500000000000        2.7211998719793216        2.7211998719793216        0.0000000000000000        1.0000000000000000     
  0.14062500000000000       0.39062500000000000        2.6043787137052714        2.6043787137052714        0.0000000000000000        1.0000000000000000     
  0.14062500000000000       0.42187500000000000        2.4970036037869230        2.4970036037869230        0.0000000000000000        1.0000000000000000     
  0.14062500000000000       0.45312500000000000        2.4010374146268090        2.4010374146268090        0.0000000000000000        1.0000000000000000     
  0.14062500000000000       0.48437500000000000        2.3175684790833415        2.3175684790833415        0.0000000000000000        1.0000000000000000     
  0.14062500000000000       0.51562500000000000        2.2468491204559484        2.2468491204559484        0.0000000000000000        1.0000000000000000     
  0.14062500000000000       0.54687500000000000        2.1884223363812247        2.1884223363812247        0.0000000000000000        1.0000000000000000     
  0.14062500000000000       0.57812500000000000        2.1413004281270878        2.1413004281270878        0.0000000000000000        1.0000000000000000     