 VARIABLES="X","Y","U1","U2","F1","F2"
 zone i=          34  j=          34  f=point
 SOLUTIONTIME=   5.0000000000000003E-002  STRANDID=           5
  -1.5625000000000000E-002  -1.5625000000000000E-002   2.0000000000000000        2.0000000000000000        1.0000000000000000        0.0000000000000000     
  -1.5625000000000000E-002   1.5625000000000000E-002   2.9912509518563843        2.9912509518563843        1.0000000000000000        0.0000000000000000     
  -1.5625000000000000E-002   4.6875000000000000E-002   2.9744625272874039        2.9744625272874039        1.0000000000000000        0.0000000000000000     
  -1.5625000000000000E-002   7.8125000000000000E-002   2.9597189912047317        2.9597189912047317        1.0000000000000000        0.0000000000000000     
  -1.5625000000000000E-002  0.10937500000000000        2.9481241488629122        2.9481241488629122        1.0000000000000000        0.0000000000000000     
  -1.5625000000000000E-002  0.14062500000000000        2.9404401054535390        2.9404401054535390        1.0000000000000000        0.0000000000000000     
  -1.5625000000000000E-002  0.17187500000000000        2.9370175999722066        2.9370175999722066        1.0000000000000000        0.0000000000000000     
  -1.5625000000000000E-002  0.20312500000000000        2.9377660683168734        2.9377660683168734        1.0000000000000000        0.0000000000000000     
  -1.5625000000000000E-002  0.23437500000000000        2.9421621715368524        2.9421621715368524        1.0000000000000000        0.0000000000000000     
  -1.5625000000000000E-002  0.26562500000000000        2.9492967890896993        2.9492967890896993        1.0000000000000000        0.0000000000000000     
  -1.5625000000000000E-002  0.29687500000000000        2.9562284650004820        2.9050682998017634       0.60000000000000031       0.39999999999999963     
  -1.5625000000000000E-002  0.32812500000000000        2.7190437986808198        2.7190437986808198        0.0000000000000000        1.0000000000000000     
  -1.5625000000000000E-002  0.35937500000000000        2.4901072488738021        2.4901072488738021        0.0000000000000000        1.0000000000000000     
  -1.5625000000000000E-002  0.39062500000000000        2.3155942465729389        2.3155942465729389        0.0000000000000000        1.0000000000000000     
  -1.5625000000000000E-002  0.42187500000000000        2.1940046306317385        2.1940046306317385        0.0000000000000000        1.0000000000000000     
  -1.5625000000000000E-002  0.45312500000000000        2.1148111619598207        2.1148111619598207        0.0000000000000000        1.0000000000000000     
  -1.5625000000000000E-002  0.48437500000000000        2.0658411713097551        2.0658411713097551        0.0000000000000000        1.0000000000000000     
  -1.5625000000000000E-002  0.51562500000000000        2.0367774964381864        2.0367774964381864        0.0000000000000000        1.0000000000000000     
  -1.5625000000000000E-002  0.54687500000000000        2.0200906511481480        2.0200906511481480        0.0000000000000000        1.0000000000000000     
  -1.5625000000000000E-002  0.57812500000000000        2.0107679003102974        2.0107679003102974        0.0000000000000000        1.0000000000000000     
  -1.5625000000000000E-002  0.60937500000000000        2.0056770029048629        2.0056770029048629        0.0000000000000000        1.0000000000000000     
  -1.5625000000000000E-002  0.64062500000000000        2.0029503648801303        2.0029503648801303        0.0000000000000000        1.0000000000000000     
  -1.5625000000000000E-002  0.67187500000000000        2.0015141078304892        2.0015141078304892        0.0000000000000000        1.0000000000000000     
  -1.5625000000000000E-002  0.70312500000000000        2.0007684074578429        2.0007684074578429        0.0000000000000000        1.0000000000000000     
  -1.5625000000000000E-002  0.73437500000000000        2.0003861072685374        2.0003861072685374        0.0000000000000000        1.0000000000000000     
  -1.5625000000000000E-002  0.76562500000000000        2.0001922869396886        2.0001922869396886        0.0000000000000000        1.0000000000000000     
  -1.5625000000000000E-002  0.79687500000000000        2.0000949911274475        2.0000949911274475        0.0000000000000000        1.0000000000000000     
  -1.5625000000000000E-002  0.82812500000000000        2.0000465773528124        2.0000465773528124        0.0000000000000000        1.0000000000000000     
  -1.5625000000000000E-002  0.85937500000000000        2.0000226700681294        2.0000226700681294        0.0000000000000000        1.0000000000000000     
  -1.5625000000000000E-002  0.89062500000000000        2.0000109303166127        2.0000109303166127        0.0000000000000000        1.0000000000000000     
  -1.5625000000000000E-002  0.92187500000000000        2.0000051627582840        2.0000051627582840        0.0000000000000000        1.0000000000000000     
  -1.5625000000000000E-002  0.95312500000000000        2.0000022617876883        2.0000022617876883        0.0000000000000000        1.0000000000000000     
  -1.5625000000000000E-002  0.98437500000000000        2.0000006341871872        2.0000006341871872        0.0000000000000000        1.0000000000000000     
  -1.5625000000000000E-002   1.0156250000000000        2.0000000000000000        2.0000000000000000        0.0000000000000000        1.0000000000000000     
   1.5625000000000000E-002  -1.5625000000000000E-002   3.0087490481436157        3.0087490481436157        1.0000000000000000        0.0000000000000000     
   1.5625000000000000E-002   1.5625000000000000E-002   2.9912509518563843        2.9912509518563843        1.0000000000000000        0.0000000000000000     
   1.5625000000000000E-002   4.6875000000000000E-002   2.9744625272874039        2.9744625272874039        1.0000000000000000        0.0000000000000000     
   1.5625000000000000E-002   7.8125000000000000E-002   2.9597189912047317        2.9597189912047317        1.0000000000000000        0.0000000000000000     
   1.5625000000000000E-002  0.10937500000000000        2.9481241488629122        2.9481241488629122        1.0000000000000000        0.0000000000000000     
   1.5625000000000000E-002  0.14062500000000000        2.9404401054535390        2.9404401054535390        1.0000000000000000        0.0000000000000000     
   1.5625000000000000E-002  0.17187500000000000        2.9370175999722066        2.9370175999722066        1.0000000000000000        0.0000000000000000     
   1.5625000000000000E-002  0.20312500000000000        2.9377660683168734        2.9377660683168734        1.0000000000000000        0.0000000000000000     
   1.5625000000000000E-002  0.23437500000000000        2.9421621715368524        2.9421621715368524        1.0000000000000000        0.0000000000000000     
   1.5625000000000000E-002  0.26562500000000000        2.9492967890896993        2.9492967890896993        1.0000000000000000        0.0000000000000000     
   1.5625000000000000E-002  0.29687500000000000        2.9562284650004820        2.9050682998017634       0.60000000000000031       0.39999999999999963     
   1.5625000000000000E-002  0.32812500000000000        2.7190437986808198        2.7190437986808198        0.0000000000000000        1.0000000000000000     
   1.5625000000000000E-002  0.35937500000000000        2.4901072488738021        2.4901072488738021        0.0000000000000000        1.0000000000000000     
   1.5625000000000000E-002  0.39062500000000000        2.3155942465729389        2.3155942465729389        0.0000000000000000        1.0000000000000000     
   1.5625000000000000E-002  0.42187500000000000        2.1940046306317385        2.1940046306317385        0.0000000000000000        1.0000000000000000     
   1.5625000000000000E-002  0.45312500000000000        2.1148111619598207        2.1148111619598207        0.0000000000000000        1.0000000000000000     
   1.5625000000000000E-002  0.48437500000000000        2.0658411713097551        2.0658411713097551        0.0000000000000000        1.0000000000000000     
   1.5625000000000000E-002  0.51562500000000000        2.0367774964381864        2.0367774964381864        0.0000000000000000        1.0000000000000000     
   1.5625000000000000E-002  0.54687500000000000        2.0200906511481480        2.0200906511481480        0.0000000000000000        1.0000000000000000     
   1.5625000000000000E-002  0.57812500000000000        2.0107679003102974        2.0107679003102974        0.0000000000000000        1.0000000000000000     
   1.5625000000000000E-002  0.60937500000000000        2.0056770029048629        2.0056770029048629        0.0000000000000000        1.0000000000000000     
   1.5625000000000000E-002  0.64062500000000000        2.0029503648801303        2.0029503648801303        0.0000000000000000        1.0000000000000000     
   1.5625000000000000E-002  0.67187500000000000        2.0015141078304892        2.0015141078304892        0.0000000000000000        1.0000000000000000     
   1.5625000000000000E-002  0.70312500000000000        2.0007684074578429        2.0007684074578429        0.0000000000000000        1.0000000000000000     
   1.5625000000000000E-002  0.73437500000000000        2.0003861072685374        2.0003861072685374        0.0000000000000000        1.0000000000000000     
   1.5625000000000000E-002  0.76562500000000000        2.0001922869396886        2.0001922869396886        0.0000000000000000        1.0000000000000000     
   1.5625000000000000E-002  0.79687500000000000        2.0000949911274475        2.0000949911274475        0.0000000000000000        1.0000000000000000     
   1.5625000000000000E-002  0.82812500000000000        2.0000465773528124        2.0000465773528124        0.0000000000000000        1.0000000000000000     
   1.5625000000000000E-002  0.85937500000000000        2.0000226700681294        2.0000226700681294        0.0000000000000000        1.0000000000000000     
   1.5625000000000000E-002  0.89062500000000000        2.0000109303166127        2.0000109303166127        0.0000000000000000        1.0000000000000000     
   1.5625000000000000E-002  0.92187500000000000        2.0000051627582840        2.0000051627582840        0.0000000000000000        1.0000000000000000     
   1.5625000000000000E-002  0.95312500000000000        2.0000022617876883        2.0000022617876883        0.0000000000000000        1.0000000000000000     
   1.5625000000000000E-002  0.98437500000000000        2.0000006341871872        2.0000006341871872        0.0000000000000000        1.0000000000000000     
   1.5625000000000000E-002   1.0156250000000000        1.9999993658128128        1.9999993658128128        0.0000000000000000        1.0000000000000000     
   4.6875000000000000E-002  -1.5625000000000000E-002   3.0087490481436157        3.0087490481436157        1.0000000000000000        0.0000000000000000     
   4.6875000000000000E-002   1.5625000000000000E-002   2.9912509518563843        2.9912509518563843        1.0000000000000000        0.0000000000000000     
   4.6875000000000000E-002   4.6875000000000000E-002   2.9744625272874039        2.9744625272874039        1.0000000000000000        0.0000000000000000     
   4.6875000000000000E-002   7.8125000000000000E-002   2.9597189912047317        2.9597189912047317        1.0000000000000000        0.0000000000000000     
   4.6875000000000000E-002  0.10937500000000000        2.9481241488629122        2.9481241488629122        1.0000000000000000        0.0000000000000000     
   4.6875000000000000E-002  0.14062500000000000        2.9404401054535390        2.9404401054535390        1.0000000000000000        0.0000000000000000     
   4.6875000000000000E-002  0.17187500000000000        2.9370175999722066        2.9370175999722066        1.0000000000000000        0.0000000000000000     
   4.6875000000000000E-002  0.20312500000000000        2.9377660683168734        2.9377660683168734        1.0000000000000000        0.0000000000000000     
   4.6875000000000000E-002  0.23437500000000000        2.9421621715368524        2.9421621715368524        1.0000000000000000        0.0000000000000000     
   4.6875000000000000E-002  0.26562500000000000        2.9492967890896993        2.9492967890896993        1.0000000000000000        0.0000000000000000     
   4.6875000000000000E-002  0.29687500000000000        2.9562284650004820        2.9050682998017647       0.60000000000000031       0.39999999999999963     
   4.6875000000000000E-002  0.32812500000000000        2.7190437986808198        2.7190437986808198        0.0000000000000000        1.0000000000000000     
   4.6875000000000000E-002  0.35937500000000000        2.4901072488738021        2.4901072488738021        0.0000000000000000        1.0000000000000000     
   4.6875000000000000E-002  0.39062500000000000        2.3155942465729389        2.3155942465729389        0.0000000000000000        1.0000000000000000     
   4.6875000000000000E-002  0.42187500000000000        2.1940046306317385        2.1940046306317385        0.0000000000000000        1.0000000000000000     
   4.6875000000000000E-002  0.45312500000000000        2.1148111619598207        2.1148111619598207        0.0000000000000000        1.0000000000000000     
   4.6875000000000000E-002  0.48437500000000000        2.0658411713097551        2.0658411713097551        0.0000000000000000        1.0000000000000000     
   4.6875000000000000E-002  0.51562500000000000        2.0367774964381864        2.0367774964381864        0.0000000000000000        1.0000000000000000     
   4.6875000000000000E-002  0.54687500000000000        2.0200906511481480        2.0200906511481480        0.0000000000000000        1.0000000000000000     
   4.6875000000000000E-002  0.57812500000000000        2.0107679003102974        2.0107679003102974        0.0000000000000000        1.0000000000000000     
   4.6875000000000000E-002  0.60937500000000000        2.0056770029048629        2.0056770029048629        0.0000000000000000        1.0000000000000000     
   4.6875000000000000E-002  0.64062500000000000        2.0029503648801303        2.0029503648801303        0.0000000000000000        1.0000000000000000     
   4.6875000000000000E-002  0.67187500000000000        2.0015141078304892        2.0015141078304892        0.0000000000000000        1.0000000000000000     
   4.6875000000000000E-002  0.70312500000000000        2.0007684074578429        2.0007684074578429        0.0000000000000000        1.0000000000000000     
   4.6875000000000000E-002  0.73437500000000000        2.0003861072685374        2.0003861072685374        0.0000000000000000        1.0000000000000000     
   4.6875000000000000E-002  0.76562500000000000        2.0001922869396886        2.0001922869396886        0.0000000000000000        1.0000000000000000     
   4.6875000000000000E-002  0.79687500000000000        2.0000949911274475        2.0000949911274475        0.0000000000000000        1.0000000000000000     
   4.6875000000000000E-002  0.82812500000000000        2.0000465773528124        2.0000465773528124        0.0000000000000000        1.0000000000000000     
   4.6875000000000000E-002  0.85937500000000000        2.0000226700681294        2.0000226700681294        0.0000000000000000        1.0000000000000000     
   4.6875000000000000E-002  0.89062500000000000        2.0000109303166127        2.0000109303166127        0.0000000000000000        1.0000000000000000     
   4.6875000000000000E-002  0.92187500000000000        2.0000051627582840        2.0000051627582840        0.0000000000000000        1.0000000000000000     
   4.6875000000000000E-002  0.95312500000000000        2.0000022617876883        2.0000022617876883        0.0000000000000000        1.0000000000000000     
   4.6875000000000000E-002  0.98437500000000000        2.0000006341871872        2.0000006341871872        0.0000000000000000        1.0000000000000000     
   4.6875000000000000E-002   1.0156250000000000        1.9999993658128128        1.9999993658128128        0.0000000000000000        1.0000000000000000     
   7.8125000000000000E-002  -1.5625000000000000E-002   3.0087490481436157        3.0087490481436157        1.0000000000000000        0.0000000000000000     
   7.8125000000000000E-002   1.5625000000000000E-002   2.9912509518563843        2.9912509518563843        1.0000000000000000        0.0000000000000000     
   7.8125000000000000E-002   4.6875000000000000E-002   2.9744625272874039        2.9744625272874039        1.0000000000000000        0.0000000000000000     
   7.8125000000000000E-002   7.8125000000000000E-002   2.9597189912047317        2.9597189912047317        1.0000000000000000        0.0000000000000000     
   7.8125000000000000E-002  0.10937500000000000        2.9481241488629122        2.9481241488629122        1.0000000000000000        0.0000000000000000     
   7.8125000000000000E-002  0.14062500000000000        2.9404401054535390        2.9404401054535390        1.0000000000000000        0.0000000000000000     
   7.8125000000000000E-002  0.17187500000000000        2.9370175999722066        2.9370175999722066        1.0000000000000000        0.0000000000000000     
   7.8125000000000000E-002  0.20312500000000000        2.9377660683168734        2.9377660683168734        1.0000000000000000        0.0000000000000000     
   7.8125000000000000E-002  0.23437500000000000        2.9421621715368524        2.9421621715368524        1.0000000000000000        0.0000000000000000     
   7.8125000000000000E-002  0.26562500000000000        2.9492967890896993        2.9492967890896993        1.0000000000000000        0.0000000000000000     
   7.8125000000000000E-002  0.29687500000000000        2.9562284650004815        2.9050682998017674       0.60000000000000031       0.39999999999999963     
   7.8125000000000000E-002  0.32812500000000000        2.7190437986808198        2.7190437986808198        0.0000000000000000        1.0000000000000000     
   7.8125000000000000E-002  0.35937500000000000        2.4901072488738021        2.4901072488738021        0.0000000000000000        1.0000000000000000     
   7.8125000000000000E-002  0.39062500000000000        2.3155942465729393        2.3155942465729393        0.0000000000000000        1.0000000000000000     
   7.8125000000000000E-002  0.42187500000000000        2.1940046306317385        2.1940046306317385        0.0000000000000000        1.0000000000000000     
   7.8125000000000000E-002  0.45312500000000000        2.1148111619598207        2.1148111619598207        0.0000000000000000        1.0000000000000000     
   7.8125000000000000E-002  0.48437500000000000        2.0658411713097551        2.0658411713097551        0.0000000000000000        1.0000000000000000     
   7.8125000000000000E-002  0.51562500000000000        2.0367774964381864        2.0367774964381864        0.0000000000000000        1.0000000000000000     
   7.8125000000000000E-002  0.54687500000000000        2.0200906511481480        2.0200906511481480        0.0000000000000000        1.0000000000000000     
   7.8125000000000000E-002  0.57812500000000000        2.0107679003102974        2.0107679003102974        0.0000000000000000        1.0000000000000000     
   7.8125000000000000E-002  0.60937500000000000        2.0056770029048629        2.0056770029048629        0.0000000000000000        1.0000000000000000     
   7.8125000000000000E-002  0.64062500000000000        2.0029503648801303        2.0029503648801303        0.0000000000000000        1.0000000000000000     
   7.8125000000000000E-002  0.67187500000000000        2.0015141078304892        2.0015141078304892        0.0000000000000000        1.0000000000000000     
   7.8125000000000000E-002  0.70312500000000000        2.0007684074578429        2.0007684074578429        0.0000000000000000        1.0000000000000000     
   7.8125000000000000E-002  0.73437500000000000        2.0003861072685374        2.0003861072685374        0.0000000000000000        1.0000000000000000     
   7.8125000000000000E-002  0.76562500000000000        2.0001922869396886        2.0001922869396886        0.0000000000000000        1.0000000000000000     
   7.8125000000000000E-002  0.79687500000000000        2.0000949911274475        2.0000949911274475        0.0000000000000000        1.0000000000000000     
   7.8125000000000000E-002  0.82812500000000000        2.0000465773528124        2.0000465773528124        0.0000000000000000        1.0000000000000000     
   7.8125000000000000E-002  0.85937500000000000        2.0000226700681294        2.0000226700681294        0.0000000000000000        1.0000000000000000     
   7.8125000000000000E-002  0.89062500000000000        2.0000109303166127        2.0000109303166127        0.0000000000000000        1.0000000000000000     
   7.8125000000000000E-002  0.92187500000000000        2.0000051627582840        2.0000051627582840        0.0000000000000000        1.0000000000000000     
   7.8125000000000000E-002  0.95312500000000000        2.0000022617876883        2.0000022617876883        0.0000000000000000        1.0000000000000000     
   7.8125000000000000E-002  0.98437500000000000        2.0000006341871872        2.0000006341871872        0.0000000000000000        1.0000000000000000     
   7.8125000000000000E-002   1.0156250000000000        1.9999993658128128        1.9999993658128128        0.0000000000000000        1.0000000000000000     
  0.10937500000000000       -1.5625000000000000E-002   3.0087490481436157        3.0087490481436157        1.0000000000000000        0.0000000000000000     
  0.10937500000000000        1.5625000000000000E-002   2.9912509518563843        2.9912509518563843        1.0000000000000000        0.0000000000000000     
  0.10937500000000000        4.6875000000000000E-002   2.9744625272874039        2.9744625272874039        1.0000000000000000        0.0000000000000000     
  0.10937500000000000        7.8125000000000000E-002   2.9597189912047317        2.9597189912047317        1.0000000000000000        0.0000000000000000     
  0.10937500000000000       0.10937500000000000        2.9481241488629122        2.9481241488629122        1.0000000000000000        0.0000000000000000     
  0.10937500000000000       0.14062500000000000        2.9404401054535390        2.9404401054535390        1.0000000000000000        0.0000000000000000     
  0.10937500000000000       0.17187500000000000        2.9370175999722066        2.9370175999722066        1.0000000000000000        0.0000000000000000     
  0.10937500000000000       0.20312500000000000        2.9377660683168734        2.9377660683168734        1.0000000000000000        0.0000000000000000     
  0.10937500000000000       0.23437500000000000        2.9421621715368524        2.9421621715368524        1.0000000000000000        0.0000000000000000     
  0.10937500000000000       0.26562500000000000        2.9492967890896993        2.9492967890896993        1.0000000000000000        0.0000000000000000     
  0.10937500000000000       0.29687500000000000        2.9562284650004815        2.9050682998017598       0.60000000000000031       0.39999999999999963     
  0.10937500000000000       0.32812500000000000        2.7190437986808202        2.7190437986808202        0.0000000000000000        1.0000000000000000     
  0.10937500000000000       0.35937500000000000        2.4901072488738025        2.4901072488738025        0.0000000000000000        1.0000000000000000     
  0.10937500000000000       0.39062500000000000        2.3155942465729393        2.3155942465729393        0.0000000000000000        1.0000000000000000     
  0.10937500000000000       0.42187500000000000        2.1940046306317389        2.1940046306317389        0.0000000000000000        1.0000000000000000     
  0.10937500000000000       0.45312500000000000        2.1148111619598211        2.1148111619598211        0.0000000000000000        1.0000000000000000     
  0.10937500000000000       0.48437500000000000        2.0658411713097555        2.0658411713097555        0.0000000000000000        1.0000000000000000     
  0.10937500000000000       0.51562500000000000        2.0367774964381864        2.0367774964381864        0.0000000000000000        1.0000000000000000     
  0.10937500000000000       0.54687500000000000        2.0200906511481480        2.0200906511481480        0.0000000000000000        1.0000000000000000     
  0.10937500000000000       0.57812500000000000        2.0107679003102974        2.0107679003102974        0.0000000000000000        1.0000000000000000     
  0.10937500000000000       0.60937500000000000        2.0056770029048625        2.0056770029048625        0.0000000000000000        1.0000000000000000     
  0.10937500000000000       0.64062500000000000        2.0029503648801303        2.0029503648801303        0.0000000000000000        1.0000000000000000     
  0.10937500000000000       0.67187500000000000        2.0015141078304892        2.0015141078304892        0.0000000000000000        1.0000000000000000     
  0.10937500000000000       0.70312500000000000        2.0007684074578425        2.0007684074578425        0.0000000000000000        1.0000000000000000     
  0.10937500000000000       0.73437500000000000        2.0003861072685369        2.0003861072685369        0.0000000000000000        1.0000000000000000     
  0.10937500000000000       0.76562500000000000        2.0001922869396886        2.0001922869396886        0.0000000000000000        1.0000000000000000     
  0.10937500000000000       0.79687500000000000        2.0000949911274475        2.0000949911274475        0.0000000000000000        1.0000000000000000     
  0.10937500000000000       0.82812500000000000        2.0000465773528124        2.0000465773528124        0.0000000000000000        1.0000000000000000     
  0.10937500000000000       0.85937500000000000        2.0000226700681294        2.0000226700681294        0.0000000000000000        1.0000000000000000     
  0.10937500000000000       0.89062500000000000        2.0000109303166127        2.0000109303166127        0.0000000000000000        1.0000000000000000     
  0.10937500000000000       0.92187500000000000        2.0000051627582840        2.0000051627582840        0.0000000000000000        1.0000000000000000     
  0.10937500000000000       0.95312500000000000        2.0000022617876883        2.0000022617876883        0.0000000000000000        1.0000000000000000     
  0.10937500000000000       0.98437500000000000        2.0000006341871872        2.0000006341871872        0.0000000000000000        1.0000000000000000     
  0.10937500000000000        1.0156250000000000        1.9999993658128128        1.9999993658128128        0.0000000000000000        1.0000000000000000     
  0.14062500000000000       -1.5625000000000000E-002   3.0087490481436157        3.0087490481436157        1.0000000000000000        0.0000000000000000     
  0.14062500000000000        1.5625000000000000E-002   2.9912509518563843        2.9912509518563843        1.0000000000000000        0.0000000000000000     
  0.14062500000000000        4.6875000000000000E-002   2.9744625272874039        2.9744625272874039        1.0000000000000000        0.0000000000000000     
  0.14062500000000000        7.8125000000000000E-002   2.9597189912047317        2.9597189912047317        1.0000000000000000        0.0000000000000000     
  0.14062500000000000       0.10937500000000000        2.9481241488629122        2.9481241488629122        1.0000000000000000        0.0000000000000000     
  0.14062500000000000       0.14062500000000000        2.9404401054535390        2.9404401054535390        1.0000000000000000        0.0000000000000000     
  0.14062500000000000       0.17187500000000000        2.9370175999722066        2.9370175999722066        1.0000000000000000        0.0000000000000000     
  0.14062500000000000       0.20312500000000000        2.9377660683168729        2.9377660683168729        1.0000000000000000        0.0000000000000000     
  0.14062500000000000       0.23437500000000000        2.9421621715368524        2.9421621715368524        1.0000000000000000        0.0000000000000000     
  0.14062500000000000       0.26562500000000000        2.9492967890896993        2.9492967890896993        1.0000000000000000        0.0000000000000000     
  0.14062500000000000       0.29687500000000000        2.9562284650004820        2.9050682998017598       0.60000000000000031       0.39999999999999963     
  0.14062500000000000       0.32812500000000000        2.7190437986808207        2.7190437986808207        0.0000000000000000        1.0000000000000000     
  0.14062500000000000       0.35937500000000000        2.4901072488738030        2.4901072488738030        0.0000000000000000        1.0000000000000000     
  0.14062500000000000       0.39062500000000000        2.3155942465729398        2.3155942465729398        0.0000000000000000        1.0000000000000000     
  0.14062500000000000       0.42187500000000000        2.1940046306317389        2.1940046306317389        0.0000000000000000        1.0000000000000000     
  0.14062500000000000       0.45312500000000000        2.1148111619598211        2.1148111619598211        0.0000000000000000        1.0000000000000000     
  0.14062500000000000       0.48437500000000000        2.0658411713097551        2.0658411713097551        0.0000000000000000        1.0000000000000000     
  0.14062500000000000       0.51562500000000000        2.0367774964381864        2.0367774964381864        0.0000000000000000        1.0000000000000000     
  0.14062500000000000       0.54687500000000000        2.0200906511481480        2.0200906511481480        0.0000000000000000        1.0000000000000000     
  0.14062500000000000       0.57812500000000000        2.0107679003102974        2.0107679003102974        0.0000000000000000        1.0000000000000000     